
                                 *****************
                                 * O   R   C   A *
                                 *****************

           --- An Ab Initio, DFT and Semiempirical electronic structure package ---

                  #######################################################
                  #                        -***-                        #
                  #          Department of theory and spectroscopy      #
                  #               Directorship: Frank Neese             #
                  #        Max Planck Institute fuer Kohlenforschung    #
                  #                Kaiser Wilhelm Platz 1               #
                  #                 D-45470 Muelheim/Ruhr               #
                  #                      Germany                        #
                  #                                                     #
                  #                  All rights reserved                #
                  #                        -***-                        #
                  #######################################################


                         Program Version 4.2.1 -  RELEASE  -


 With contributions from (in alphabetic order):
   Daniel Aravena         : Magnetic Suceptibility
   Michael Atanasov       : Ab Initio Ligand Field Theory (pilot matlab implementation)
   Alexander A. Auer      : GIAO ZORA, VPT2
   Ute Becker             : Parallelization
   Giovanni Bistoni       : ED, misc. LED, open-shell LED, HFLD
   Martin Brehm           : Molecular dynamics
   Dmytro Bykov           : SCF Hessian
   Vijay G. Chilkuri      : MRCI spin determinant printing, contributions to CSF-ICE
   Dipayan Datta          : RHF DLPNO-CCSD density
   Achintya Kumar Dutta   : EOM-CC, STEOM-CC
   Dmitry Ganyushin       : Spin-Orbit,Spin-Spin,Magnetic field MRCI
   Miquel Garcia          : C-PCM Hessian, Gaussian charge scheme
   Yang Guo               : DLPNO-NEVPT2, CIM, IAO-localization
   Andreas Hansen         : Spin unrestricted coupled pair/coupled cluster methods
   Benjamin Helmich-Paris : CASSCF linear response (MC-RPA)
   Lee Huntington         : MR-EOM, pCC
   Robert Izsak           : Overlap fitted RIJCOSX, COSX-SCS-MP3, EOM
   Christian Kollmar      : KDIIS, OOCD, Brueckner-CCSD(T), CCSD density
   Simone Kossmann        : Meta GGA functionals, TD-DFT gradient, OOMP2, MP2 Hessian
   Martin Krupicka        : AUTO-CI
   Lucas Lang             : DCDCAS
   Dagmar Lenk            : GEPOL surface, SMD
   Dimitrios Liakos       : Extrapolation schemes; Compound Job, initial MDCI parallelization
   Dimitrios Manganas     : Further ROCIS development; embedding schemes
   Dimitrios Pantazis     : SARC Basis sets
   Taras Petrenko         : DFT Hessian,TD-DFT gradient, ASA, ECA, R-Raman, ABS, FL, XAS/XES, NRVS
   Peter Pinski           : DLPNO-MP2, DLPNO-MP2 Gradient
   Christoph Reimann      : Effective Core Potentials
   Marius Retegan         : Local ZFS, SOC
   Christoph Riplinger    : Optimizer, TS searches, QM/MM, DLPNO-CCSD(T), (RO)-DLPNO pert. Triples
   Tobias Risthaus        : Range-separated hybrids, TD-DFT gradient, RPA, STAB
   Michael Roemelt        : Original ROCIS implementation
   Masaaki Saitow         : Open-shell DLPNO-CCSD energy and density
   Barbara Sandhoefer     : DKH picture change effects
   Avijit Sen             : IP-ROCIS
   Kantharuban Sivalingam : CASSCF convergence, NEVPT2, FIC-MRCI
   Bernardo de Souza      : ESD, SOC TD-DFT
   Georgi Stoychev        : AutoAux, RI-MP2 NMR
   Willem Van den Heuvel  : Paramagnetic NMR
   Boris Wezisla          : Elementary symmetry handling
   Frank Wennmohs         : Technical directorship


 We gratefully acknowledge several colleagues who have allowed us to
 interface, adapt or use parts of their codes:
   Stefan Grimme, W. Hujo, H. Kruse,             : VdW corrections, initial TS optimization,
                  C. Bannwarth                     DFT functionals, gCP, sTDA/sTD-DF
   Ed Valeev, F. Pavosevic, A. Kumar             : LibInt (2-el integral package), F12 methods
   Garnet Chan, S. Sharma, J. Yang, R. Olivares  : DMRG
   Ulf Ekstrom                                   : XCFun DFT Library
   Mihaly Kallay                                 : mrcc  (arbitrary order and MRCC methods)
   Andreas Klamt, Michael Diedenhofen            : otool_cosmo (COSMO solvation model)
   Jiri Pittner, Ondrej Demel                    : Mk-CCSD
   Frank Weinhold                                : gennbo (NPA and NBO analysis)
   Christopher J. Cramer and Donald G. Truhlar   : smd solvation model
   Lars Goerigk                                  : TD-DFT with DH, B97 family of functionals
   V. Asgeirsson, H. Jonsson                     : NEB implementation
   FAccTs GmbH                                   : IRC, NEB, NEB-TS, Multilevel, MM, QM/MM, CI optimization
   S Lehtola, MJT Oliveira, MAL Marques          : LibXC Library


 Your calculation uses the libint2 library for the computation of 2-el integrals
 For citations please refer to: http://libint.valeyev.net

 Your ORCA version has been built with support for libXC version: 4.2.3
 For citations please refer to: https://tddft.org/programs/libxc/

 This ORCA versions uses:
   CBLAS   interface :  Fast vector & matrix operations
   LAPACKE interface :  Fast linear algebra routines
   SCALAPACK package :  Parallel linear algebra routines


XCFun DFT library Copyright 2009-2010 Ulf Ekstrom and contributors.
See http://admol.org/xcfun for more information. This is free soft-
ware; see the source code for copying conditions. There is ABSOLUTELY
NO WARRANTY; not even for MERCHANTABILITY or FITNESS FOR A PARTICULAR
PURPOSE. For details see the documentation. Scientific users of this 
library should cite U. Ekstrom, L. Visscher, R. Bast, A. J. Thorvald-
sen and K. Ruud; J.Chem.Theor.Comp. 2010, DOI: 10.1021/ct100117s
XCFun Version 0.99 
----- Orbital basis set information -----
Your calculation utilizes the basis: 6-31G*
   H-He, Li-Ne : W. J. Hehre, R. Ditchfield and J.A. Pople, J. Chem. Phys. 56, 2257 (1972).
                 Note: He and Ne are unpublished basis sets taken from the Gaussian program.
                 Note: Li and B from J. D. Dill and J. A. Pople, J. Chem. Phys. 62, 2921 (1975).
   Na - Ar     : M. M. Francl, W. J. Pietro, W. J. Hehre, J. S. Binkley, M. S. Gordon, 
                 D. J. DeFrees and J. A. Pople, J. Chem. Phys. 77, 3654 (1982).
   K - Zn      : V. A. Rassolov, J. A. Pople, M. A. Ratner, and T. L. Windus, J. Chem. Phys. 109, 1223 (1998).

================================================================================
                                        WARNINGS
                       Please study these warnings very carefully!
================================================================================


INFO   : the flag for use of LIBINT has been found!

================================================================================
                                       INPUT FILE
================================================================================
NAME = bis_crystal_connect1stscan.inp
|  1> # ================================================================
|  2> # Orca input file made in Gabedit
|  3> # ================================================================
|  4> ! CAM-B3LYP 6-31G*
|  5>  
|  6> %geom scan
|  7> 
|  8> D 29 3 23 1 = -180, 180, 18
|  9> D 30 2 31 19 = -180, 180 , 18
| 10> # 29 3 23 16 = -180, 180, 18
| 11> # 30 2 31 7 = -180, 180, 18
| 12> 
| 13> # Scan the  dihedral from -180 to 180 in 18 steps
| 14> 
| 15> end
| 16> end
| 17> * xyz 0   1
| 18> C          5.40600        5.09700        6.71000
| 19> C          8.11400        2.78900        8.59600
| 20> C          7.49600        6.18800        6.17300
| 21> C          8.84600        2.52200       12.01400
| 22> C          4.90000        2.81900        5.83700
| 23> C          8.60700        8.38400        4.37800
| 24> C          5.65800        3.03500        8.19800
| 25> C          8.05200        5.01500        9.70200
| 26> C          8.49800       10.72300        3.66100
| 27> C          4.89300        3.70300        7.08000
| 28> C          8.82700        6.19400        5.39400
| 29> C          7.98100        3.50400        9.93400
| 30> C          9.87200        5.40600        6.19300
| 31> C         11.15100        5.08300        5.42700
| 32> C          6.35400        2.68400        5.42400
| 33> C          6.91300        4.04400        5.03300
| 34> C         10.10800        1.44200       13.84100
| 35> C          7.70700        5.88000       10.89900
| 36> C          7.15100        2.00000        6.52500
| 37> C          6.25800        5.78100       11.26600
| 38> C          9.37600       11.89700        4.01500
| 39> C          8.08000        7.32300       10.56200
| 40> N          6.71900        5.06200        6.07000
| 41> N          9.06100        3.06300       10.81100
| 42> O          7.67100        8.04200        3.70800
| 43> O         10.00000        2.03000       12.50000
| 44> C          9.19900        0.25000       13.97200
| 45> O          9.15400        9.61200        4.38500
| 46> O          7.17700        7.11900        6.88800
| 47> O          9.22500        2.38900        8.24200
| 48> N          7.03800        2.68800        7.80800
| 49> N          9.28200        7.56600        5.20300
| 50> O          7.78600        2.49900       12.58900
| 51> C          7.11200       10.92800        4.16300
| 52> C         12.12200        4.38800        6.36800
| 53> C         10.90000        4.20000        4.25700
| 54> C          8.56900       10.44900        2.17700
| 55> C         11.50800        1.01200       13.92200
| 56> C          9.89700        2.56100       14.83900
| 57> H          9.08100       12.67300        3.53300
| 58> H         10.28500       11.69900        3.77800
| 59> H          7.83500        7.89600       11.29100
| 60> H          7.61400        7.59700        9.76900
| 61> H          9.98000        7.85000        5.61800
| 62> H          4.52100        1.94800        6.03700
| 63> H          4.38100        3.22700        5.12600
| 64> H          5.68500        3.63000        8.96500
| 65> H          5.19100        2.22800        8.46600
| 66> H          9.87200        3.15600       10.54000
| 67> H          8.95100        5.23600        9.41300
| 68> H          7.45000        5.24100        8.97700
| 69> H          4.77100        5.52000        6.11000
| 70> H          5.45900        5.63900        7.51400
| 71> H         10.10600        5.91700        6.98400
| 72> H          9.47100        4.57500        6.49100
| 73> H          6.57300       10.16800        3.93100
| 74> H          7.86100        3.95500        4.85000
| 75> H          6.74000       11.71700        3.76200
| 76> H          3.96100        3.79800        7.37200
| 77> H          7.12800       11.03000        5.11700
| 78> H          8.69600        5.77000        4.52000
| 79> H         12.13500        4.84700        7.21100
| 80> H          7.11800        3.27800       10.34000
| 81> H         13.00200        4.39800        5.98500
| 82> H          6.48100        4.34000        4.21500
| 83> H         11.84200        3.48000        6.50300
| 84> H          6.83600        1.08800        6.62500
| 85> H         10.49300        3.38400        4.55300
| 86> H         11.55500        5.91900        5.11500
| 87> H         11.73200        4.00400        3.82000
| 88> H          6.38600        2.10900        4.63100
| 89> H         10.31300        4.64600        3.64100
| 90> H          8.08500        1.96400        6.26500
| 91> H          9.48600       10.34800        1.91300
| 92> H          5.72000        6.05700       10.52100
| 93> H          8.17800       11.18300        1.69700
| 94> H          8.24500        5.58700       11.66400
| 95> H          8.08700        9.64300        1.97700
| 96> H          6.07900        6.35100       12.01800
| 97> H         11.60700        0.16400       13.48400
| 98> H          6.04700        4.87400       11.49500
| 99> H         11.76400        0.92900       14.84300
|100> H          9.32000       12.06500        4.95900
|101> H         12.06800        1.66200       13.49100
|102> H          9.02700        7.38200       10.41300
|103> H         10.39300        3.33500       14.56200
|104> H         10.20200        2.27900       15.70500
|105> H          8.96300        2.77900       14.88400
|106> H          8.29000        0.54800       14.05700
|107> H          9.44300       -0.25500       14.75200
|108> H          9.28200       -0.30400       13.19300
|109> *
|110> 
|111>                          ****END OF INPUT****
================================================================================

                       ****************************
                       * Single Point Calculation *
                       ****************************

---------------------------------
CARTESIAN COORDINATES (ANGSTROEM)
---------------------------------
  C      5.406000    5.097000    6.710000
  C      8.114000    2.789000    8.596000
  C      7.496000    6.188000    6.173000
  C      8.846000    2.522000   12.014000
  C      4.900000    2.819000    5.837000
  C      8.607000    8.384000    4.378000
  C      5.658000    3.035000    8.198000
  C      8.052000    5.015000    9.702000
  C      8.498000   10.723000    3.661000
  C      4.893000    3.703000    7.080000
  C      8.827000    6.194000    5.394000
  C      7.981000    3.504000    9.934000
  C      9.872000    5.406000    6.193000
  C     11.151000    5.083000    5.427000
  C      6.354000    2.684000    5.424000
  C      6.913000    4.044000    5.033000
  C     10.108000    1.442000   13.841000
  C      7.707000    5.880000   10.899000
  C      7.151000    2.000000    6.525000
  C      6.258000    5.781000   11.266000
  C      9.376000   11.897000    4.015000
  C      8.080000    7.323000   10.562000
  N      6.719000    5.062000    6.070000
  N      9.061000    3.063000   10.811000
  O      7.671000    8.042000    3.708000
  O     10.000000    2.030000   12.500000
  C      9.199000    0.250000   13.972000
  O      9.154000    9.612000    4.385000
  O      7.177000    7.119000    6.888000
  O      9.225000    2.389000    8.242000
  N      7.038000    2.688000    7.808000
  N      9.282000    7.566000    5.203000
  O      7.786000    2.499000   12.589000
  C      7.112000   10.928000    4.163000
  C     12.122000    4.388000    6.368000
  C     10.900000    4.200000    4.257000
  C      8.569000   10.449000    2.177000
  C     11.508000    1.012000   13.922000
  C      9.897000    2.561000   14.839000
  H      9.081000   12.673000    3.533000
  H     10.285000   11.699000    3.778000
  H      7.835000    7.896000   11.291000
  H      7.614000    7.597000    9.769000
  H      9.980000    7.850000    5.618000
  H      4.521000    1.948000    6.037000
  H      4.381000    3.227000    5.126000
  H      5.685000    3.630000    8.965000
  H      5.191000    2.228000    8.466000
  H      9.872000    3.156000   10.540000
  H      8.951000    5.236000    9.413000
  H      7.450000    5.241000    8.977000
  H      4.771000    5.520000    6.110000
  H      5.459000    5.639000    7.514000
  H     10.106000    5.917000    6.984000
  H      9.471000    4.575000    6.491000
  H      6.573000   10.168000    3.931000
  H      7.861000    3.955000    4.850000
  H      6.740000   11.717000    3.762000
  H      3.961000    3.798000    7.372000
  H      7.128000   11.030000    5.117000
  H      8.696000    5.770000    4.520000
  H     12.135000    4.847000    7.211000
  H      7.118000    3.278000   10.340000
  H     13.002000    4.398000    5.985000
  H      6.481000    4.340000    4.215000
  H     11.842000    3.480000    6.503000
  H      6.836000    1.088000    6.625000
  H     10.493000    3.384000    4.553000
  H     11.555000    5.919000    5.115000
  H     11.732000    4.004000    3.820000
  H      6.386000    2.109000    4.631000
  H     10.313000    4.646000    3.641000
  H      8.085000    1.964000    6.265000
  H      9.486000   10.348000    1.913000
  H      5.720000    6.057000   10.521000
  H      8.178000   11.183000    1.697000
  H      8.245000    5.587000   11.664000
  H      8.087000    9.643000    1.977000
  H      6.079000    6.351000   12.018000
  H     11.607000    0.164000   13.484000
  H      6.047000    4.874000   11.495000
  H     11.764000    0.929000   14.843000
  H      9.320000   12.065000    4.959000
  H     12.068000    1.662000   13.491000
  H      9.027000    7.382000   10.413000
  H     10.393000    3.335000   14.562000
  H     10.202000    2.279000   15.705000
  H      8.963000    2.779000   14.884000
  H      8.290000    0.548000   14.057000
  H      9.443000   -0.255000   14.752000
  H      9.282000   -0.304000   13.193000

----------------------------
CARTESIAN COORDINATES (A.U.)
----------------------------
  NO LB      ZA    FRAG     MASS         X           Y           Z
   0 C     6.0000    0    12.011   10.215859    9.631934   12.680062
   1 C     6.0000    0    12.011   15.333238    5.270446   16.244086
   2 C     6.0000    0    12.011   14.165387   11.693625   11.665279
   3 C     6.0000    0    12.011   16.716517    4.765889   22.703170
   4 C     6.0000    0    12.011    9.259658    5.327138   11.030331
   5 C     6.0000    0    12.011   16.264873   15.843464    8.273221
   6 C     6.0000    0    12.011   10.692070    5.735319   15.491975
   7 C     6.0000    0    12.011   15.216075    9.476977   18.334123
   8 C     6.0000    0    12.011   16.058893   20.263533    6.918287
   9 C     6.0000    0    12.011    9.246430    6.997656   13.379261
  10 C     6.0000    0    12.011   16.680613   11.704964   10.193183
  11 C     6.0000    0    12.011   15.081904    6.621600   18.772539
  12 C     6.0000    0    12.011   18.655376   10.215859   11.703074
  13 C     6.0000    0    12.011   21.072336    9.605478   10.255544
  14 C     6.0000    0    12.011   12.007320    5.072025   10.249875
  15 C     6.0000    0    12.011   13.063677    7.642052    9.510992
  16 C     6.0000    0    12.011   19.101352    2.724985   26.155699
  17 C     6.0000    0    12.011   14.564119   11.111590   20.596125
  18 C     6.0000    0    12.011   13.513432    3.779452   12.330463
  19 C     6.0000    0    12.011   11.825906   10.924507   21.289655
  20 C     6.0000    0    12.011   17.718072   22.482072    7.587250
  21 C     6.0000    0    12.011   15.268987   13.838464   19.959287
  22 N     7.0000    0    14.007   12.697070    9.565794   11.470638
  23 N     7.0000    0    14.007   17.122808    5.788231   20.429829
  24 O     8.0000    0    15.999   14.496089   15.197178    7.007105
  25 O     8.0000    0    15.999   18.897261    3.836144   23.621577
  26 C     6.0000    0    12.011   17.383591    0.472432   26.403254
  27 O     8.0000    0    15.999   17.298553   18.164048    8.286449
  28 O     8.0000    0    15.999   13.562564   13.452960   13.016434
  29 O     8.0000    0    15.999   17.432724    4.514556   15.575123
  30 N     7.0000    0    14.007   13.299893    5.079584   14.754982
  31 N     7.0000    0    14.007   17.540438   14.297668    9.832245
  32 O     8.0000    0    15.999   14.713408    4.722426   23.789762
  33 C     6.0000    0    12.011   13.439732   20.650927    7.866930
  34 C     6.0000    0    12.011   22.907260    8.292118   12.033776
  35 C     6.0000    0    12.011   20.598015    7.936850    8.044564
  36 C     6.0000    0    12.011   16.193063   19.745748    4.113934
  37 C     6.0000    0    12.011   21.746968    1.912403   26.308767
  38 C     6.0000    0    12.011   18.702620    4.839589   28.041646
  39 H     1.0000    0     1.008   17.160603   23.948499    6.676402
  40 H     1.0000    0     1.008   19.435833   22.107906    7.139385
  41 H     1.0000    0     1.008   14.806004   14.921278   21.336898
  42 H     1.0000    0     1.008   14.388375   14.356249   18.460735
  43 H     1.0000    0     1.008   18.859467   14.834350   10.616481
  44 H     1.0000    0     1.008    8.543452    3.681187   11.408277
  45 H     1.0000    0     1.008    8.278890    6.098146    9.686736
  46 H     1.0000    0     1.008   10.743093    6.859706   16.941395
  47 H     1.0000    0     1.008    9.809568    4.210310   15.998421
  48 H     1.0000    0     1.008   18.655376    5.963976   19.917713
  49 H     1.0000    0     1.008   16.914939    9.894606   17.787992
  50 H     1.0000    0     1.008   14.078460    9.904055   16.964072
  51 H     1.0000    0     1.008    9.015883   10.431288   11.546227
  52 H     1.0000    0     1.008   10.316015   10.656166   14.199402
  53 H     1.0000    0     1.008   19.097572   11.181510   13.197847
  54 H     1.0000    0     1.008   17.897596    8.645497   12.266212
  55 H     1.0000    0     1.008   12.421170   19.214735    7.428513
  56 H     1.0000    0     1.008   14.855137    7.473867    9.165172
  57 H     1.0000    0     1.008   12.736754   22.141921    7.109150
  58 H     1.0000    0     1.008    7.485205    7.177180   13.931061
  59 H     1.0000    0     1.008   13.469968   20.843679    9.669729
  60 H     1.0000    0     1.008   16.433058   10.903720    8.541562
  61 H     1.0000    0     1.008   22.931827    9.159503   13.626815
  62 H     1.0000    0     1.008   13.451071    6.194522   19.539768
  63 H     1.0000    0     1.008   24.570219    8.311016   11.310011
  64 H     1.0000    0     1.008   12.247315    8.201411    7.965196
  65 H     1.0000    0     1.008   22.378137    6.576247   12.288889
  66 H     1.0000    0     1.008   12.918168    2.056022   12.519436
  67 H     1.0000    0     1.008   19.828896    6.394833    8.603923
  68 H     1.0000    0     1.008   21.835785   11.185289    9.665949
  69 H     1.0000    0     1.008   22.170267    7.566463    7.218754
  70 H     1.0000    0     1.008   12.067791    3.985432    8.751322
  71 H     1.0000    0     1.008   19.488746    8.779668    6.880493
  72 H     1.0000    0     1.008   15.278436    3.711422   11.839134
  73 H     1.0000    0     1.008   17.925942   19.554886    3.615046
  74 H     1.0000    0     1.008   10.809233   11.446071   19.881809
  75 H     1.0000    0     1.008   15.454180   21.132807    3.206865
  76 H     1.0000    0     1.008   15.580792   10.557900   22.041766
  77 H     1.0000    0     1.008   15.282215   18.222629    3.735989
  78 H     1.0000    0     1.008   11.487645   12.001651   22.710729
  79 H     1.0000    0     1.008   21.934051    0.309915   25.481067
  80 H     1.0000    0     1.008   11.427174    9.210525   21.722402
  81 H     1.0000    0     1.008   22.230738    1.755556   28.049205
  82 H     1.0000    0     1.008   17.612248   22.799546    9.371152
  83 H     1.0000    0     1.008   22.805215    3.140725   25.494295
  84 H     1.0000    0     1.008   17.058558   13.949958   19.677718
  85 H     1.0000    0     1.008   19.639924    6.302237   27.518192
  86 H     1.0000    0     1.008   19.278986    4.306686   29.678149
  87 H     1.0000    0     1.008   16.937615    5.251549   28.126684
  88 H     1.0000    0     1.008   15.665830    1.035570   26.563880
  89 H     1.0000    0     1.008   17.844684   -0.481880   27.877240
  90 H     1.0000    0     1.008   17.540438   -0.574477   24.931157

--------------------------------
INTERNAL COORDINATES (ANGSTROEM)
--------------------------------
 C      0   0   0     0.000000000000     0.00000000     0.00000000
 C      1   0   0     4.027049043655     0.00000000     0.00000000
 C      1   2   0     2.418005376338    77.37132145     0.00000000
 C      2   1   3     3.505686380725   129.84251566   106.31610023
 C      1   2   3     2.491475265781    77.09435151   126.00137261
 C      3   1   2     3.046106038863   140.47969759   170.55849984
 C      5   1   2     2.489084369803    61.73467758    34.79092272
 C      2   1   3     2.486394176312    71.24354080    67.47914269
 C      6   3   1     2.448855038584   147.65909830    55.21051903
 C      7   5   1     1.510421464360    35.11876678    32.04135553
 C      3   1   2     1.542218531856   149.30572354    72.04391460
 C      2   1   3     1.522878196049    94.79917923    94.54546028
 C     11   3   1     1.533417751299   108.84174918   274.30361834
 C     13  11   3     1.525426497738   114.74329166   168.17010237
 C      5   1   2     1.517534184129    88.97485230   305.92570015
 C     15   5   1     1.521499917844   110.02559269   327.89242545
 C      4   2   1     2.469204932767   149.47843120   175.98829030
 C      8   2   1     1.516594540410   150.15560779   110.97611090
 C     15   5   1     1.521599815983   110.17736751    93.49828301
 C     18   8   2     1.498029038437   112.06799654   303.11408854
 C      9   6   3     1.508136598588   130.45756357   102.33904267
 C     18   8   2     1.528053336765   107.99983040   180.99224676
 N      3   1   2     1.371938045248    32.52386387    62.93398253
 N      4   2   1     1.336456134709    28.97082232   267.66980485
 O      6   3   1     1.200816388962    80.74505502   331.94405891
 O      4   2   1     1.345353485148   123.99808982   200.21719815
 C     17   4   2     1.504761110609    95.86290036   277.84046341
 O      6   3   1     1.344337011318   143.50121640   112.13027392
 O      3   1   2     1.216448519256    89.31930201   249.78833621
 O      2   1   3     1.232735575864   131.11140931   318.73220748
 N      2   1   3     1.337505514007    39.31998779   226.00985706
 N      6   3   1     1.343642065433    51.86750007   183.70566287
 O      4   2   1     1.206131833590   106.42459332    43.07842560
 C      9   6   3     1.488296005504    94.25847520   340.17403064
 C     14  13  11     1.520311481243   108.75339723   176.23339624
 C     14  13  11     1.487141553451   112.28892177   296.77692190
 C      9   6   3     1.510752461524    96.44692588   225.83418182
 C     17   4   2     1.466785942120   131.06450097    40.67233760
 C     17   4   2     1.514161814338    95.34911443   160.59786609
 H     21   9   6     0.959960936705   109.42093766   177.73864066
 H     21   9   6     0.960028124588   109.43488202    57.76153747
 H     22  18   8     0.959059435072   109.52443345   177.53501096
 H     22  18   8     0.959729649433   109.46979661    57.49417652
 H     32   6   3     0.860281930532   120.18662164   214.53039185
 H      5   1   2     0.970712109742   145.84273269    72.63100303
 H      5   1   2     0.970229869670    88.90708946   195.37950062
 H      7   5   1     0.971104010907   144.17578007    27.16780690
 H      7   5   1     0.970135042146    92.47910424   152.71278453
 H     24   4   2     0.860122665670   118.62424079   225.01292844
 H      8   2   1     0.969826273103    92.77095655   247.05399219
 H      8   2   1     0.969074300557    83.77068698   354.30827971
 H      1   2   3     0.970646176524   168.28836437    95.06029044
 H      1   2   3     0.971076207102    83.99755490   275.45598749
 H     13  11   3     0.970339115980   108.57075808   289.83706674
 H     13  11   3     0.969621575668   108.58557297    46.41746632
 H     34   9   6     0.960179670687   109.40515441   316.73705589
 H     16  15   5     0.969594760712   109.00634120   174.90010115
 H     34   9   6     0.960055206746   109.46071096   196.87863540
 H     10   7   5     0.981281305233   107.67410901   117.10765424
 H     34   9   6     0.959570737361   109.53933013    76.76668781
 H     11   3   1     0.980210691637   109.47288102    33.92700145
 H     35  14  13     0.959947394392   109.48821034   315.63135359
 H     12   2   1     0.980143356862   109.42524815    71.78462030
 H     35  14  13     0.959785913629   109.50186875   195.62443372
 H     16  15   5     0.971269272653   108.99138502   292.18806285
 H     35  14  13     0.959733817264   109.46498239    75.59827380
 H     19  15   5     0.970035566358   109.09496527    65.45990716
 H     36  14  13     0.958707984738   109.51897458   301.63971800
 H     14  13  11     0.979518248937   108.96843338    57.65332403
 H     36  14  13     0.960004687489   109.45582825   181.51856243
 H     15   5   1     0.980049998725   107.67921489   210.74189492
 H     36  14  13     0.960698183614   109.38649360    61.64558758
 H     19  15   5     0.970181426332   109.08824581   182.95927041
 H     37   9   6     0.959575948010   109.52697433   276.13247015
 H     20  18   8     0.959502475244   109.45862781   300.71914624
 H     37   9   6     0.960227577192   109.46651238   156.19620634
 H     18   8   2     0.980060202232   108.70429816    63.23315234
 H     37   9   6     0.960187481693   109.46647831    36.21739475
 H     20  18   8     0.960440003332   109.44317649   180.78949163
 H     38  17   4     0.959556668467   109.41109601   279.45301861
 H     20  18   8     0.958963502955   109.50182062    60.78761049
 H     38  17   4     0.959513418353   109.45211046   159.43946452
 H     21   9   6     0.960466553296   109.44612330   297.75573382
 H     38  17   4     0.960135927877   109.47773840    39.41055779
 H     22  18   8     0.960463950391   109.44503740   297.53390795
 H     39  17   4     0.960115097267   109.48853316   290.78919198
 H     39  17   4     0.960471238507   109.45389561   170.83097433
 H     39  17   4     0.960158841026   109.52615812    50.81001004
 H     27  17   4     0.960369720472   109.49186968   308.83694709
 H     27  17   4     0.960708592654   109.49077037   188.93807053
 H     27  17   4     0.959502996348   109.53848422    68.85811165

---------------------------
INTERNAL COORDINATES (A.U.)
---------------------------
 C      0   0   0     0.000000000000     0.00000000     0.00000000
 C      1   0   0     7.610019820377     0.00000000     0.00000000
 C      1   2   0     4.569367951628    77.37132145     0.00000000
 C      2   1   3     6.624787170988   129.84251566   106.31610023
 C      1   2   3     4.708205921765    77.09435151   126.00137261
 C      3   1   2     5.756306188335   140.47969759   170.55849984
 C      5   1   2     4.703687783153    61.73467758    34.79092272
 C      2   1   3     4.698604054207    71.24354080    67.47914269
 C      6   3   1     4.627665364598   147.65909830    55.21051903
 C      7   5   1     2.854282914437    35.11876678    32.04135553
 C      3   1   2     2.914370663866   149.30572354    72.04391460
 C      2   1   3     2.877822725852    94.79917923    94.54546028
 C     11   3   1     2.897739598849   108.84174918   274.30361834
 C     13  11   3     2.882638318151   114.74329166   168.17010237
 C      5   1   2     2.867724006867    88.97485230   305.92570015
 C     15   5   1     2.875218157509   110.02559269   327.89242545
 C      4   2   1     4.666121091457   149.47843120   175.98829030
 C      8   2   1     2.865948337574   150.15560779   110.97611090
 C     15   5   1     2.875406937633   110.17736751    93.49828301
 C     18   8   2     2.830864623307   112.06799654   303.11408854
 C      9   6   3     2.849965143874   130.45756357   102.33904267
 C     18   8   2     2.887602324511   107.99983040   180.99224676
 N      3   1   2     2.592587178227    32.52386387    62.93398253
 N      4   2   1     2.525536084598    28.97082232   267.66980485
 O      6   3   1     2.269214112263    80.74505502   331.94405891
 O      4   2   1     2.542349640246   123.99808982   200.21719815
 C     17   4   2     2.843586396025    95.86290036   277.84046341
 O      6   3   1     2.540428783086   143.50121640   112.13027392
 O      3   1   2     2.298754557408    89.31930201   249.78833621
 O      2   1   3     2.329532633924   131.11140931   318.73220748
 N      2   1   3     2.527519124083    39.31998779   226.00985706
 N      6   3   1     2.539115525684    51.86750007   183.70566287
 O      4   2   1     2.279258846890   106.42459332    43.07842560
 C      9   6   3     2.812471856612    94.25847520   340.17403064
 C     14  13  11     2.872972337806   108.75339723   176.23339624
 C     14  13  11     2.810290258396   112.28892177   296.77692190
 C      9   6   3     2.854908408427    96.44692588   225.83418182
 C     17   4   2     2.771823727692   131.06450097    40.67233760
 C     17   4   2     2.861351151541    95.34911443   160.59786609
 H     21   9   6     1.814063269635   109.42093766   177.73864066
 H     21   9   6     1.814190236333   109.43488202    57.76153747
 H     22  18   8     1.812359678439   109.52443345   177.53501096
 H     22  18   8     1.813626200032   109.46979661    57.49417652
 H     32   6   3     1.625697246667   120.18662164   214.53039185
 H      5   1   2     1.834380042294   145.84273269    72.63100303
 H      5   1   2     1.833468740627    88.90708946   195.37950062
 H      7   5   1     1.835120628167   144.17578007    27.16780690
 H      7   5   1     1.833289542576    92.47910424   152.71278453
 H     24   4   2     1.625396279695   118.62424079   225.01292844
 H      8   2   1     1.832706053645    92.77095655   247.05399219
 H      8   2   1     1.831285031474    83.77068698   354.30827971
 H      1   2   3     1.834255446567   168.28836437    95.06029044
 H      1   2   3     1.835068086590    83.99755490   275.45598749
 H     13  11   3     1.833675186233   108.57075808   289.83706674
 H     13  11   3     1.832319231553   108.58557297    46.41746632
 H     34   9   6     1.814476616957   109.40515441   316.73705589
 H     16  15   5     1.832268558630   109.00634120   174.90010115
 H     34   9   6     1.814241414195   109.46071096   196.87863540
 H     10   7   5     1.854352927227   107.67410901   117.10765424
 H     34   9   6     1.813325899738   109.53933013    76.76668781
 H     11   3   1     1.852329760736   109.47288102    33.92700145
 H     35  14  13     1.814037678372   109.48821034   315.63135359
 H     12   2   1     1.852202516451   109.42524815    71.78462030
 H     35  14  13     1.813732523954   109.50186875   195.62443372
 H     16  15   5     1.835432927607   108.99138502   292.18806285
 H     35  14  13     1.813634076092   109.46498239    75.59827380
 H     19  15   5     1.833101560580   109.09496527    65.45990716
 H     36  14  13     1.811695533558   109.51897458   301.63971800
 H     14  13  11     1.851021233668   108.96843338    57.65332403
 H     36  14  13     1.814145946634   109.45582825   181.51856243
 H     15   5   1     1.852026095139   107.67921489   210.74189492
 H     36  14  13     1.815456464387   109.38649360    61.64558758
 H     19  15   5     1.833377195985   109.08824581   182.95927041
 H     37   9   6     1.813335746437   109.52697433   276.13247015
 H     20  18   8     1.813196903031   109.45862781   300.71914624
 H     37   9   6     1.814567147132   109.46651238   156.19620634
 H     18   8   2     1.852045376975   108.70429816    63.23315234
 H     37   9   6     1.814491377619   109.46647831    36.21739475
 H     20  18   8     1.814968574360   109.44317649   180.78949163
 H     38  17   4     1.813299313381   109.41109601   279.45301861
 H     20  18   8     1.812178393011   109.50182062    60.78761049
 H     38  17   4     1.813217582510   109.45211046   159.43946452
 H     21   9   6     1.815018746520   109.44612330   297.75573382
 H     38  17   4     1.814393955026   109.47773840    39.41055779
 H     22  18   8     1.815013827742   109.44503740   297.53390795
 H     39  17   4     1.814354590878   109.48853316   290.78919198
 H     39  17   4     1.815027600287   109.45389561   170.83097433
 H     39  17   4     1.814437254602   109.52615812    50.81001004
 H     27  17   4     1.814835759003   109.49186968   308.83694709
 H     27  17   4     1.815476134622   109.49077037   188.93807053
 H     27  17   4     1.813197887774   109.53848422    68.85811165

---------------------
BASIS SET INFORMATION
---------------------
There are 4 groups of distinct atoms

 Group   1 Type C   : 10s4p1d contracted to 3s2p1d pattern {631/31/1}
 Group   2 Type N   : 10s4p1d contracted to 3s2p1d pattern {631/31/1}
 Group   3 Type O   : 10s4p1d contracted to 3s2p1d pattern {631/31/1}
 Group   4 Type H   : 4s contracted to 2s pattern {31}

Atom   0C    basis set group =>   1
Atom   1C    basis set group =>   1
Atom   2C    basis set group =>   1
Atom   3C    basis set group =>   1
Atom   4C    basis set group =>   1
Atom   5C    basis set group =>   1
Atom   6C    basis set group =>   1
Atom   7C    basis set group =>   1
Atom   8C    basis set group =>   1
Atom   9C    basis set group =>   1
Atom  10C    basis set group =>   1
Atom  11C    basis set group =>   1
Atom  12C    basis set group =>   1
Atom  13C    basis set group =>   1
Atom  14C    basis set group =>   1
Atom  15C    basis set group =>   1
Atom  16C    basis set group =>   1
Atom  17C    basis set group =>   1
Atom  18C    basis set group =>   1
Atom  19C    basis set group =>   1
Atom  20C    basis set group =>   1
Atom  21C    basis set group =>   1
Atom  22N    basis set group =>   2
Atom  23N    basis set group =>   2
Atom  24O    basis set group =>   3
Atom  25O    basis set group =>   3
Atom  26C    basis set group =>   1
Atom  27O    basis set group =>   3
Atom  28O    basis set group =>   3
Atom  29O    basis set group =>   3
Atom  30N    basis set group =>   2
Atom  31N    basis set group =>   2
Atom  32O    basis set group =>   3
Atom  33C    basis set group =>   1
Atom  34C    basis set group =>   1
Atom  35C    basis set group =>   1
Atom  36C    basis set group =>   1
Atom  37C    basis set group =>   1
Atom  38C    basis set group =>   1
Atom  39H    basis set group =>   4
Atom  40H    basis set group =>   4
Atom  41H    basis set group =>   4
Atom  42H    basis set group =>   4
Atom  43H    basis set group =>   4
Atom  44H    basis set group =>   4
Atom  45H    basis set group =>   4
Atom  46H    basis set group =>   4
Atom  47H    basis set group =>   4
Atom  48H    basis set group =>   4
Atom  49H    basis set group =>   4
Atom  50H    basis set group =>   4
Atom  51H    basis set group =>   4
Atom  52H    basis set group =>   4
Atom  53H    basis set group =>   4
Atom  54H    basis set group =>   4
Atom  55H    basis set group =>   4
Atom  56H    basis set group =>   4
Atom  57H    basis set group =>   4
Atom  58H    basis set group =>   4
Atom  59H    basis set group =>   4
Atom  60H    basis set group =>   4
Atom  61H    basis set group =>   4
Atom  62H    basis set group =>   4
Atom  63H    basis set group =>   4
Atom  64H    basis set group =>   4
Atom  65H    basis set group =>   4
Atom  66H    basis set group =>   4
Atom  67H    basis set group =>   4
Atom  68H    basis set group =>   4
Atom  69H    basis set group =>   4
Atom  70H    basis set group =>   4
Atom  71H    basis set group =>   4
Atom  72H    basis set group =>   4
Atom  73H    basis set group =>   4
Atom  74H    basis set group =>   4
Atom  75H    basis set group =>   4
Atom  76H    basis set group =>   4
Atom  77H    basis set group =>   4
Atom  78H    basis set group =>   4
Atom  79H    basis set group =>   4
Atom  80H    basis set group =>   4
Atom  81H    basis set group =>   4
Atom  82H    basis set group =>   4
Atom  83H    basis set group =>   4
Atom  84H    basis set group =>   4
Atom  85H    basis set group =>   4
Atom  86H    basis set group =>   4
Atom  87H    basis set group =>   4
Atom  88H    basis set group =>   4
Atom  89H    basis set group =>   4
Atom  90H    basis set group =>   4

Checking for AutoStart:
The File: bis_crystal_connect1stscan.gbw exists
Trying to determine its content:
     ... Fine, the file contains calculation information
     ... Fine, the calculation information was read
     ... Fine, the file contains a basis set
     ... Fine, the basis set was read
     ... Fine, the file contains a geometry
     ... Fine, the geometry was read
     ... Fine, the file contains a set of orbitals
     ... Fine, the orbitals can be read
     => possible old guess file was deleted
     => GBW file was renamed to GES file
     => GES file is set as startup file
     => Guess is set to MORead
     ... now leaving AutoStart

------------------------------------------------------------------------------
                           ORCA GTO INTEGRAL CALCULATION
------------------------------------------------------------------------------

                         BASIS SET STATISTICS AND STARTUP INFO

 # of primitive gaussian shells          ...  793
 # of primitive gaussian functions       ... 1261
 # of contracted shells                  ...  338
 # of contracted basis functions         ...  650
 Highest angular momentum                ...    2
 Maximum contraction depth               ...    6
 Integral package used                   ... LIBINT
 Integral threshhold            Thresh   ...  1.000e-10
 Primitive cut-off              TCut     ...  1.000e-11


------------------------------ INTEGRAL EVALUATION ----------------------------


 * One electron integrals 
 Pre-screening matrix                    ... done
 Shell pair data                         ... done (   0.014 sec)

-------------------------------------------------------------------------------
                                 ORCA SCF
-------------------------------------------------------------------------------

------------
SCF SETTINGS
------------
Hamiltonian:
 Density Functional     Method          .... DFT(GTOs)
 Exchange Functional    Exchange        .... WB88
 Correlation Functional Correlation     .... LYP
 LDA part of GGA corr.  LDAOpt          .... VWN-5
 Gradients option       PostSCFGGA      .... off
 Hybrid DFT is turned on
   Fraction HF Exchange ScalHFX         ....  0.190000
   Scaling of DF-GGA-X  ScalDFX         ....  0.350000
   Scaling of DF-GGA-C  ScalDFC         ....  0.810000
   Scaling of DF-LDA-C  ScalLDAC        ....  1.000000
   Perturbative correction              ....  0.000000
   Density functional embedding theory  .... OFF
 Long-range corrected/Screened/Range-Separated Hybrid DFT is turned on
   Amount of maximum screened exact exchange              ....  0.460000
   Range separation parameter mu (erf(mu*r12)/r12)        ....  0.330000


General Settings:
 Integral files         IntName         .... bis_crystal_connect1stscan
 Hartree-Fock type      HFTyp           .... RHF
 Total Charge           Charge          ....    0
 Multiplicity           Mult            ....    1
 Number of Electrons    NEL             ....  302
 Basis Dimension        Dim             ....  650
 Nuclear Repulsion      ENuc            ....   5073.8090560865 Eh

Convergence Acceleration:
 DIIS                   CNVDIIS         .... on
   Start iteration      DIISMaxIt       ....    12
   Startup error        DIISStart       ....  0.200000
   # of expansion vecs  DIISMaxEq       ....     5
   Bias factor          DIISBfac        ....   1.050
   Max. coefficient     DIISMaxC        ....  10.000
 Newton-Raphson         CNVNR           .... off
 SOSCF                  CNVSOSCF        .... on
   Start iteration      SOSCFMaxIt      ....   150
   Startup grad/error   SOSCFStart      ....  0.003300
 Level Shifting         CNVShift        .... on
   Level shift para.    LevelShift      ....    0.2500
   Turn off err/grad.   ShiftErr        ....    0.0010
 Zerner damping         CNVZerner       .... off
 Static damping         CNVDamp         .... on
   Fraction old density DampFac         ....    0.7000
   Max. Damping (<1)    DampMax         ....    0.9800
   Min. Damping (>=0)   DampMin         ....    0.0000
   Turn off err/grad.   DampErr         ....    0.1000
 Fernandez-Rico         CNVRico         .... off

SCF Procedure:
 Maximum # iterations   MaxIter         ....   125
 SCF integral mode      SCFMode         .... Direct
   Integral package                     .... LIBINT
 Reset frequency        DirectResetFreq ....    20
 Integral Threshold     Thresh          ....  1.000e-10 Eh
 Primitive CutOff       TCut            ....  1.000e-11 Eh

Convergence Tolerance:
 Convergence Check Mode ConvCheckMode   .... Total+1el-Energy
 Convergence forced     ConvForced      .... 0
 Energy Change          TolE            ....  1.000e-06 Eh
 1-El. energy change                    ....  1.000e-03 Eh
 Orbital Gradient       TolG            ....  5.000e-05
 Orbital Rotation angle TolX            ....  5.000e-05
 DIIS Error             TolErr          ....  1.000e-06


Diagonalization of the overlap matrix:
Smallest eigenvalue                        ... 1.799e-03
Time for diagonalization                   ...    0.093 sec
Threshold for overlap eigenvalues          ... 1.000e-08
Number of eigenvalues below threshold      ... 0
Time for construction of square roots      ...    0.045 sec
Total time needed                          ...    0.141 sec

---------------------
INITIAL GUESS: MOREAD
---------------------
Guess MOs are being read from file: bis_crystal_connect1stscan.ges
Input Geometry matches current geometry (good)
Input basis set matches current basis set (good)
MOs were renormalized
MOs were reorthogonalized (Cholesky)
                      ------------------
                      INITIAL GUESS DONE (   0.2 sec)
                      ------------------
-------------------
DFT GRID GENERATION
-------------------

General Integration Accuracy     IntAcc      ...  4.340
Radial Grid Type                 RadialGrid  ... Gauss-Chebyshev
Angular Grid (max. acc.)         AngularGrid ... Lebedev-110
Angular grid pruning method      GridPruning ... 3 (G Style)
Weight generation scheme         WeightScheme... Becke
Basis function cutoff            BFCut       ...    1.0000e-10
Integration weight cutoff        WCut        ...    1.0000e-14
Grids for H and He will be reduced by one unit

# of grid points (after initial pruning)     ... 106416 (   0.1 sec)
# of grid points (after weights+screening)   ...  91370 (   3.6 sec)
nearest neighbour list constructed           ...    0.0 sec
Grid point re-assignment to atoms done       ...    0.0 sec
Grid point division into batches done        ...    0.1 sec
Reduced shell lists constructed in    2.0 sec

Total number of grid points                  ...    91370
Total number of batches                      ...     1479
Average number of points per batch           ...       61
Average number of grid points per atom       ...     1004
Average number of shells per batch           ...   101.80 (30.12%)
Average number of basis functions per batch  ...   192.24 (29.58%)
Average number of large shells per batch     ...    58.79 (57.75%)
Average number of large basis fcns per batch ...   113.72 (59.16%)
Maximum spatial batch extension              ...  20.37, 19.94, 20.44 au
Average spatial batch extension              ...   3.05,  2.99,  2.97 au

Time for grid setup =    5.780 sec

--------------
SCF ITERATIONS
--------------
ITER       Energy         Delta-E        Max-DP      RMS-DP      [F,P]     Damp
               ***  Starting incremental Fock matrix formation  ***
                      *** Initiating the SOSCF procedure ***
                      *** Re-Reading the Fockian *** 
                      *** Removing any level shift *** 
ITER      Energy       Delta-E        Grad      Rot      Max-DP    RMS-DP
  0  -1805.19459426 -1805.1945942609  0.000011  0.000011  0.000033  0.000000
               *** Restarting incremental Fock matrix formation ***
                  ***Gradient check signals convergence***
              ***Rediagonalizing the Fockian in SOSCF/NRSCF***

               *****************************************************
               *                     SUCCESS                       *
               *           SCF CONVERGED AFTER   1 CYCLES          *
               *****************************************************

Setting up the final grid:

General Integration Accuracy     IntAcc      ...  4.670
Radial Grid Type                 RadialGrid  ... Gauss-Chebyshev
Angular Grid (max. acc.)         AngularGrid ... Lebedev-302
Angular grid pruning method      GridPruning ... 3 (G Style)
Weight generation scheme         WeightScheme... Becke
Basis function cutoff            BFCut       ...    1.0000e-10
Integration weight cutoff        WCut        ...    1.0000e-14
Grids for H and He will be reduced by one unit

# of grid points (after initial pruning)     ... 418756 (   0.5 sec)
# of grid points (after weights+screening)   ... 348909 (  14.4 sec)
nearest neighbour list constructed           ...    0.0 sec
Grid point re-assignment to atoms done       ...    0.1 sec
Grid point division into batches done        ...    1.2 sec
Reduced shell lists constructed in    7.8 sec

Total number of grid points                  ...   348909
Total number of batches                      ...     5500
Average number of points per batch           ...       63
Average number of grid points per atom       ...     3834
Average number of shells per batch           ...    90.67 (26.82%)
Average number of basis functions per batch  ...   170.72 (26.27%)
Average number of large shells per batch     ...    52.00 (57.35%)
Average number of large basis fcns per batch ...   100.08 (58.62%)
Maximum spatial batch extension              ...  23.40, 20.07, 20.70 au
Average spatial batch extension              ...   1.98,  1.97,  1.96 au

Final grid set up in   22.8 sec
Final integration                            ... done (   9.4 sec)
Change in XC energy                          ...     0.000204270
Integrated number of electrons               ...   301.999571429
Previous integrated no of electrons          ...   302.000322237

----------------
TOTAL SCF ENERGY
----------------

Total Energy       :        -1805.19439000 Eh          -49121.83666 eV

Components:
Nuclear Repulsion  :         5073.80905609 Eh          138065.36352 eV
Electronic Energy  :        -6879.00344608 Eh         -187187.20018 eV
One Electron Energy:       -12556.64064984 Eh         -341683.56294 eV
Two Electron Energy:         5677.63720375 Eh          154496.36276 eV

Virial components:
Potential Energy   :        -3611.65433216 Eh          -98278.11074 eV
Kinetic Energy     :         1806.45994217 Eh           49156.27408 eV
Virial Ratio       :            1.99929943


DFT components:
N(Alpha)           :      150.999785714633 electrons
N(Beta)            :      150.999785714633 electrons
N(Total)           :      301.999571429267 electrons
E(XC)              :     -187.774234706664 Eh       
DFET-embed. en.    :        0.000000000000 Eh       

---------------
SCF CONVERGENCE
---------------

  Last Energy change         ...   -4.7958e-09  Tolerance :   1.0000e-06
  Last MAX-Density change    ...    3.6663e-05  Tolerance :   1.0000e-05
  Last RMS-Density change    ...    3.1924e-07  Tolerance :   1.0000e-06
  Last Orbital Gradient      ...    8.4567e-06  Tolerance :   5.0000e-05
  Last Orbital Rotation      ...    1.7965e-05  Tolerance :   5.0000e-05

             **** THE GBW FILE WAS UPDATED (bis_crystal_connect1stscan.gbw) ****
             **** DENSITY FILE WAS UPDATED (bis_crystal_connect1stscan.scfp) ****
             **** ENERGY FILE WAS UPDATED (bis_crystal_connect1stscan.en.tmp) ****
             **** THE GBW FILE WAS UPDATED (bis_crystal_connect1stscan.gbw) ****
             **** DENSITY FILE WAS UPDATED (bis_crystal_connect1stscan.scfp) ****
----------------
ORBITAL ENERGIES
----------------

  NO   OCC          E(Eh)            E(eV) 
   0   2.0000     -19.228186      -523.2255 
   1   2.0000     -19.225903      -523.1634 
   2   2.0000     -19.172872      -521.7204 
   3   2.0000     -19.171666      -521.6876 
   4   2.0000     -19.170684      -521.6608 
   5   2.0000     -19.167845      -521.5836 
   6   2.0000     -14.431460      -392.7000 
   7   2.0000     -14.422693      -392.4614 
   8   2.0000     -14.397835      -391.7850 
   9   2.0000     -14.394702      -391.6998 
  10   2.0000     -10.385689      -282.6090 
  11   2.0000     -10.385536      -282.6048 
  12   2.0000     -10.348127      -281.5868 
  13   2.0000     -10.345817      -281.5240 
  14   2.0000     -10.301854      -280.3277 
  15   2.0000     -10.300125      -280.2807 
  16   2.0000     -10.282938      -279.8130 
  17   2.0000     -10.280161      -279.7374 
  18   2.0000     -10.274735      -279.5897 
  19   2.0000     -10.269135      -279.4374 
  20   2.0000     -10.262529      -279.2576 
  21   2.0000     -10.259085      -279.1639 
  22   2.0000     -10.257239      -279.1137 
  23   2.0000     -10.257013      -279.1075 
  24   2.0000     -10.233958      -278.4802 
  25   2.0000     -10.230694      -278.3913 
  26   2.0000     -10.223069      -278.1839 
  27   2.0000     -10.219519      -278.0872 
  28   2.0000     -10.212597      -277.8989 
  29   2.0000     -10.190788      -277.3054 
  30   2.0000     -10.189371      -277.2669 
  31   2.0000     -10.185817      -277.1702 
  32   2.0000     -10.185647      -277.1655 
  33   2.0000     -10.185499      -277.1615 
  34   2.0000     -10.185308      -277.1563 
  35   2.0000     -10.183641      -277.1109 
  36   2.0000     -10.181996      -277.0662 
  37   2.0000     -10.179473      -276.9975 
  38   2.0000     -10.176371      -276.9131 
  39   2.0000      -1.169183       -31.8151 
  40   2.0000      -1.167347       -31.7651 
  41   2.0000      -1.113207       -30.2919 
  42   2.0000      -1.110735       -30.2246 
  43   2.0000      -1.075954       -29.2782 
  44   2.0000      -1.073106       -29.2007 
  45   2.0000      -1.035915       -28.1887 
  46   2.0000      -1.016660       -27.6647 
  47   2.0000      -1.014363       -27.6022 
  48   2.0000      -1.009745       -27.4766 
  49   2.0000      -0.923933       -25.1415 
  50   2.0000      -0.918374       -24.9902 
  51   2.0000      -0.912807       -24.8387 
  52   2.0000      -0.904054       -24.6006 
  53   2.0000      -0.900488       -24.5035 
  54   2.0000      -0.899920       -24.4881 
  55   2.0000      -0.847976       -23.0746 
  56   2.0000      -0.844585       -22.9823 
  57   2.0000      -0.822201       -22.3732 
  58   2.0000      -0.803840       -21.8736 
  59   2.0000      -0.801050       -21.7977 
  60   2.0000      -0.799840       -21.7647 
  61   2.0000      -0.799532       -21.7564 
  62   2.0000      -0.798348       -21.7242 
  63   2.0000      -0.791935       -21.5497 
  64   2.0000      -0.787782       -21.4366 
  65   2.0000      -0.783874       -21.3303 
  66   2.0000      -0.750096       -20.4112 
  67   2.0000      -0.747440       -20.3389 
  68   2.0000      -0.723182       -19.6788 
  69   2.0000      -0.709476       -19.3058 
  70   2.0000      -0.702616       -19.1192 
  71   2.0000      -0.676995       -18.4220 
  72   2.0000      -0.669247       -18.2111 
  73   2.0000      -0.665346       -18.1050 
  74   2.0000      -0.650097       -17.6900 
  75   2.0000      -0.648292       -17.6409 
  76   2.0000      -0.646721       -17.5982 
  77   2.0000      -0.628565       -17.1041 
  78   2.0000      -0.595306       -16.1991 
  79   2.0000      -0.590089       -16.0571 
  80   2.0000      -0.587063       -15.9748 
  81   2.0000      -0.581741       -15.8300 
  82   2.0000      -0.576058       -15.6753 
  83   2.0000      -0.570547       -15.5254 
  84   2.0000      -0.565181       -15.3793 
  85   2.0000      -0.556806       -15.1515 
  86   2.0000      -0.551876       -15.0173 
  87   2.0000      -0.551109       -14.9964 
  88   2.0000      -0.548865       -14.9354 
  89   2.0000      -0.544425       -14.8146 
  90   2.0000      -0.541676       -14.7398 
  91   2.0000      -0.541052       -14.7228 
  92   2.0000      -0.535381       -14.5685 
  93   2.0000      -0.533702       -14.5228 
  94   2.0000      -0.530116       -14.4252 
  95   2.0000      -0.524206       -14.2644 
  96   2.0000      -0.520745       -14.1702 
  97   2.0000      -0.518324       -14.1043 
  98   2.0000      -0.515643       -14.0314 
  99   2.0000      -0.514553       -14.0017 
 100   2.0000      -0.510187       -13.8829 
 101   2.0000      -0.508403       -13.8343 
 102   2.0000      -0.503393       -13.6980 
 103   2.0000      -0.497262       -13.5312 
 104   2.0000      -0.494603       -13.4588 
 105   2.0000      -0.486703       -13.2438 
 106   2.0000      -0.483433       -13.1549 
 107   2.0000      -0.481448       -13.1009 
 108   2.0000      -0.479234       -13.0406 
 109   2.0000      -0.478183       -13.0120 
 110   2.0000      -0.476854       -12.9759 
 111   2.0000      -0.474458       -12.9107 
 112   2.0000      -0.470853       -12.8125 
 113   2.0000      -0.468379       -12.7453 
 114   2.0000      -0.467339       -12.7169 
 115   2.0000      -0.461046       -12.5457 
 116   2.0000      -0.460392       -12.5279 
 117   2.0000      -0.458055       -12.4643 
 118   2.0000      -0.452944       -12.3252 
 119   2.0000      -0.451719       -12.2919 
 120   2.0000      -0.450702       -12.2642 
 121   2.0000      -0.448522       -12.2049 
 122   2.0000      -0.446300       -12.1444 
 123   2.0000      -0.436956       -11.8902 
 124   2.0000      -0.430907       -11.7256 
 125   2.0000      -0.426878       -11.6159 
 126   2.0000      -0.416371       -11.3300 
 127   2.0000      -0.413438       -11.2502 
 128   2.0000      -0.413115       -11.2414 
 129   2.0000      -0.410754       -11.1772 
 130   2.0000      -0.409354       -11.1391 
 131   2.0000      -0.402561       -10.9542 
 132   2.0000      -0.398501       -10.8438 
 133   2.0000      -0.392825       -10.6893 
 134   2.0000      -0.390066       -10.6142 
 135   2.0000      -0.386536       -10.5182 
 136   2.0000      -0.385356       -10.4861 
 137   2.0000      -0.382457       -10.4072 
 138   2.0000      -0.381217       -10.3734 
 139   2.0000      -0.378410       -10.2970 
 140   2.0000      -0.373247       -10.1566 
 141   2.0000      -0.339935        -9.2501 
 142   2.0000      -0.337728        -9.1901 
 143   2.0000      -0.321853        -8.7581 
 144   2.0000      -0.320100        -8.7104 
 145   2.0000      -0.317528        -8.6404 
 146   2.0000      -0.315256        -8.5786 
 147   2.0000      -0.307768        -8.3748 
 148   2.0000      -0.300630        -8.1806 
 149   2.0000      -0.298112        -8.1120 
 150   2.0000      -0.280157        -7.6235 
 151   0.0000       0.079799         2.1715 
 152   0.0000       0.092491         2.5168 
 153   0.0000       0.116919         3.1815 
 154   0.0000       0.130814         3.5596 
 155   0.0000       0.133004         3.6192 
 156   0.0000       0.141024         3.8375 
 157   0.0000       0.149095         4.0571 
 158   0.0000       0.160143         4.3577 
 159   0.0000       0.161330         4.3900 
 160   0.0000       0.164776         4.4838 
 161   0.0000       0.175670         4.7802 
 162   0.0000       0.180604         4.9145 
 163   0.0000       0.182091         4.9549 
 164   0.0000       0.184715         5.0263 
 165   0.0000       0.186051         5.0627 
 166   0.0000       0.187794         5.1101 
 167   0.0000       0.192480         5.2377 
 168   0.0000       0.194347         5.2885 
 169   0.0000       0.203739         5.5440 
 170   0.0000       0.204811         5.5732 
 171   0.0000       0.208944         5.6857 
 172   0.0000       0.212138         5.7726 
 173   0.0000       0.218446         5.9442 
 174   0.0000       0.223384         6.0786 
 175   0.0000       0.225331         6.1316 
 176   0.0000       0.230626         6.2757 
 177   0.0000       0.233056         6.3418 
 178   0.0000       0.233545         6.3551 
 179   0.0000       0.239347         6.5130 
 180   0.0000       0.239862         6.5270 
 181   0.0000       0.240729         6.5506 
 182   0.0000       0.245736         6.6868 
 183   0.0000       0.246288         6.7019 
 184   0.0000       0.247970         6.7476 
 185   0.0000       0.248842         6.7713 
 186   0.0000       0.250126         6.8063 
 187   0.0000       0.251998         6.8572 
 188   0.0000       0.256892         6.9904 
 189   0.0000       0.257353         7.0029 
 190   0.0000       0.260506         7.0887 
 191   0.0000       0.261503         7.1159 
 192   0.0000       0.264208         7.1895 
 193   0.0000       0.265261         7.2181 
 194   0.0000       0.268018         7.2931 
 195   0.0000       0.270663         7.3651 
 196   0.0000       0.272811         7.4236 
 197   0.0000       0.275178         7.4880 
 198   0.0000       0.278194         7.5700 
 199   0.0000       0.279638         7.6093 
 200   0.0000       0.282410         7.6848 
 201   0.0000       0.283805         7.7227 
 202   0.0000       0.284741         7.7482 
 203   0.0000       0.286966         7.8087 
 204   0.0000       0.289013         7.8645 
 205   0.0000       0.292583         7.9616 
 206   0.0000       0.295290         8.0353 
 207   0.0000       0.296179         8.0594 
 208   0.0000       0.300499         8.1770 
 209   0.0000       0.302083         8.2201 
 210   0.0000       0.305493         8.3129 
 211   0.0000       0.307047         8.3552 
 212   0.0000       0.307935         8.3793 
 213   0.0000       0.312588         8.5059 
 214   0.0000       0.313693         8.5360 
 215   0.0000       0.314712         8.5637 
 216   0.0000       0.316574         8.6144 
 217   0.0000       0.318801         8.6750 
 218   0.0000       0.321931         8.7602 
 219   0.0000       0.326696         8.8898 
 220   0.0000       0.328705         8.9445 
 221   0.0000       0.330227         8.9859 
 222   0.0000       0.335744         9.1361 
 223   0.0000       0.336490         9.1564 
 224   0.0000       0.338523         9.2117 
 225   0.0000       0.339011         9.2249 
 226   0.0000       0.345446         9.4001 
 227   0.0000       0.347840         9.4652 
 228   0.0000       0.350563         9.5393 
 229   0.0000       0.353198         9.6110 
 230   0.0000       0.356993         9.7143 
 231   0.0000       0.358435         9.7535 
 232   0.0000       0.365874         9.9559 
 233   0.0000       0.368000        10.0138 
 234   0.0000       0.371432        10.1072 
 235   0.0000       0.375650        10.2220 
 236   0.0000       0.379484        10.3263 
 237   0.0000       0.386760        10.5243 
 238   0.0000       0.394147        10.7253 
 239   0.0000       0.433395        11.7933 
 240   0.0000       0.452196        12.3049 
 241   0.0000       0.455081        12.3834 
 242   0.0000       0.459035        12.4910 
 243   0.0000       0.474549        12.9131 
 244   0.0000       0.484195        13.1756 
 245   0.0000       0.500079        13.6078 
 246   0.0000       0.506874        13.7927 
 247   0.0000       0.534142        14.5347 
 248   0.0000       0.536562        14.6006 
 249   0.0000       0.538950        14.6656 
 250   0.0000       0.544680        14.8215 
 251   0.0000       0.547030        14.8855 
 252   0.0000       0.553662        15.0659 
 253   0.0000       0.556269        15.1369 
 254   0.0000       0.565816        15.3966 
 255   0.0000       0.567940        15.4544 
 256   0.0000       0.569970        15.5097 
 257   0.0000       0.571923        15.5628 
 258   0.0000       0.573557        15.6073 
 259   0.0000       0.576533        15.6882 
 260   0.0000       0.581620        15.8267 
 261   0.0000       0.587238        15.9796 
 262   0.0000       0.593937        16.1618 
 263   0.0000       0.594872        16.1873 
 264   0.0000       0.603956        16.4345 
 265   0.0000       0.608003        16.5446 
 266   0.0000       0.612560        16.6686 
 267   0.0000       0.616658        16.7801 
 268   0.0000       0.624039        16.9810 
 269   0.0000       0.627600        17.0779 
 270   0.0000       0.631205        17.1760 
 271   0.0000       0.634625        17.2690 
 272   0.0000       0.638860        17.3843 
 273   0.0000       0.645970        17.5777 
 274   0.0000       0.648676        17.6514 
 275   0.0000       0.663714        18.0606 
 276   0.0000       0.668361        18.1870 
 277   0.0000       0.674059        18.3421 
 278   0.0000       0.675917        18.3926 
 279   0.0000       0.681398        18.5418 
 280   0.0000       0.682868        18.5818 
 281   0.0000       0.684873        18.6364 
 282   0.0000       0.693832        18.8801 
 283   0.0000       0.703960        19.1557 
 284   0.0000       0.706757        19.2318 
 285   0.0000       0.714477        19.4419 
 286   0.0000       0.714921        19.4540 
 287   0.0000       0.720823        19.6146 
 288   0.0000       0.726114        19.7586 
 289   0.0000       0.731182        19.8965 
 290   0.0000       0.736509        20.0414 
 291   0.0000       0.740403        20.1474 
 292   0.0000       0.746702        20.3188 
 293   0.0000       0.750168        20.4131 
 294   0.0000       0.753946        20.5159 
 295   0.0000       0.757941        20.6246 
 296   0.0000       0.761420        20.7193 
 297   0.0000       0.767765        20.8919 
 298   0.0000       0.771124        20.9834 
 299   0.0000       0.774932        21.0870 
 300   0.0000       0.780811        21.2469 
 301   0.0000       0.784278        21.3413 
 302   0.0000       0.785565        21.3763 
 303   0.0000       0.795526        21.6474 
 304   0.0000       0.801251        21.8031 
 305   0.0000       0.807811        21.9817 
 306   0.0000       0.812505        22.1094 
 307   0.0000       0.820708        22.3326 
 308   0.0000       0.823858        22.4183 
 309   0.0000       0.830513        22.5994 
 310   0.0000       0.831352        22.6222 
 311   0.0000       0.833440        22.6791 
 312   0.0000       0.839565        22.8457 
 313   0.0000       0.845634        23.0109 
 314   0.0000       0.847391        23.0587 
 315   0.0000       0.849752        23.1229 
 316   0.0000       0.851522        23.1711 
 317   0.0000       0.858402        23.3583 
 318   0.0000       0.865083        23.5401 
 319   0.0000       0.867646        23.6098 
 320   0.0000       0.873529        23.7699 
 321   0.0000       0.883039        24.0287 
 322   0.0000       0.887995        24.1636 
 323   0.0000       0.895986        24.3810 
 324   0.0000       0.902077        24.5468 
 325   0.0000       0.911986        24.8164 
 326   0.0000       0.921131        25.0652 
 327   0.0000       0.922616        25.1057 
 328   0.0000       0.941863        25.6294 
 329   0.0000       0.943405        25.6714 
 330   0.0000       0.948293        25.8044 
 331   0.0000       0.955577        26.0026 
 332   0.0000       0.957864        26.0648 
 333   0.0000       0.967526        26.3277 
 334   0.0000       0.975206        26.5367 
 335   0.0000       0.982403        26.7325 
 336   0.0000       0.985405        26.8142 
 337   0.0000       0.991586        26.9824 
 338   0.0000       1.007269        27.4092 
 339   0.0000       1.008354        27.4387 
 340   0.0000       1.012471        27.5507 
 341   0.0000       1.021892        27.8071 
 342   0.0000       1.031779        28.0761 
 343   0.0000       1.036303        28.1992 
 344   0.0000       1.043145        28.3854 
 345   0.0000       1.044788        28.4301 
 346   0.0000       1.052678        28.6448 
 347   0.0000       1.055003        28.7081 
 348   0.0000       1.062070        28.9004 
 349   0.0000       1.063498        28.9392 
 350   0.0000       1.066272        29.0147 
 351   0.0000       1.070893        29.1405 
 352   0.0000       1.072286        29.1784 
 353   0.0000       1.078751        29.3543 
 354   0.0000       1.082692        29.4615 
 355   0.0000       1.085143        29.5282 
 356   0.0000       1.085862        29.5478 
 357   0.0000       1.087545        29.5936 
 358   0.0000       1.089866        29.6568 
 359   0.0000       1.093025        29.7427 
 360   0.0000       1.093131        29.7456 
 361   0.0000       1.095656        29.8143 
 362   0.0000       1.098012        29.8784 
 363   0.0000       1.100938        29.9581 
 364   0.0000       1.101781        29.9810 
 365   0.0000       1.106121        30.0991 
 366   0.0000       1.106877        30.1197 
 367   0.0000       1.112830        30.2817 
 368   0.0000       1.114613        30.3302 
 369   0.0000       1.119213        30.4553 
 370   0.0000       1.119595        30.4657 
 371   0.0000       1.124657        30.6035 
 372   0.0000       1.125725        30.6325 
 373   0.0000       1.130876        30.7727 
 374   0.0000       1.136655        30.9299 
 375   0.0000       1.138198        30.9719 
 376   0.0000       1.140401        31.0319 
 377   0.0000       1.144860        31.1532 
 378   0.0000       1.149930        31.2912 
 379   0.0000       1.151833        31.3430 
 380   0.0000       1.155433        31.4409 
 381   0.0000       1.159565        31.5534 
 382   0.0000       1.161804        31.6143 
 383   0.0000       1.173968        31.9453 
 384   0.0000       1.179031        32.0831 
 385   0.0000       1.183852        32.2142 
 386   0.0000       1.187561        32.3152 
 387   0.0000       1.188285        32.3349 
 388   0.0000       1.192454        32.4483 
 389   0.0000       1.197623        32.5890 
 390   0.0000       1.199984        32.6532 
 391   0.0000       1.203128        32.7388 
 392   0.0000       1.209602        32.9149 
 393   0.0000       1.210370        32.9358 
 394   0.0000       1.217120        33.1195 
 395   0.0000       1.217677        33.1347 
 396   0.0000       1.223894        33.3039 
 397   0.0000       1.230636        33.4873 
 398   0.0000       1.232754        33.5449 
 399   0.0000       1.240551        33.7571 
 400   0.0000       1.245188        33.8833 
 401   0.0000       1.251176        34.0462 
 402   0.0000       1.255394        34.1610 
 403   0.0000       1.260076        34.2884 
 404   0.0000       1.263795        34.3896 
 405   0.0000       1.266370        34.4597 
 406   0.0000       1.277229        34.7552 
 407   0.0000       1.284013        34.9398 
 408   0.0000       1.286507        35.0076 
 409   0.0000       1.295334        35.2478 
 410   0.0000       1.299056        35.3491 
 411   0.0000       1.312243        35.7079 
 412   0.0000       1.317744        35.8576 
 413   0.0000       1.324054        36.0293 
 414   0.0000       1.330861        36.2146 
 415   0.0000       1.334727        36.3198 
 416   0.0000       1.347050        36.6551 
 417   0.0000       1.356593        36.9148 
 418   0.0000       1.364010        37.1166 
 419   0.0000       1.383285        37.6411 
 420   0.0000       1.389469        37.8094 
 421   0.0000       1.396250        37.9939 
 422   0.0000       1.406854        38.2825 
 423   0.0000       1.416191        38.5365 
 424   0.0000       1.419308        38.6213 
 425   0.0000       1.423138        38.7256 
 426   0.0000       1.434707        39.0404 
 427   0.0000       1.452920        39.5360 
 428   0.0000       1.453563        39.5535 
 429   0.0000       1.457428        39.6586 
 430   0.0000       1.475063        40.1385 
 431   0.0000       1.484068        40.3835 
 432   0.0000       1.496437        40.7201 
 433   0.0000       1.504598        40.9422 
 434   0.0000       1.521724        41.4082 
 435   0.0000       1.535869        41.7931 
 436   0.0000       1.540099        41.9082 
 437   0.0000       1.547734        42.1160 
 438   0.0000       1.551891        42.2291 
 439   0.0000       1.557326        42.3770 
 440   0.0000       1.564324        42.5674 
 441   0.0000       1.571339        42.7583 
 442   0.0000       1.576728        42.9050 
 443   0.0000       1.591479        43.3063 
 444   0.0000       1.600056        43.5397 
 445   0.0000       1.602273        43.6001 
 446   0.0000       1.607609        43.7453 
 447   0.0000       1.614172        43.9238 
 448   0.0000       1.625614        44.2352 
 449   0.0000       1.632582        44.4248 
 450   0.0000       1.641459        44.6664 
 451   0.0000       1.648261        44.8515 
 452   0.0000       1.661000        45.1981 
 453   0.0000       1.665549        45.3219 
 454   0.0000       1.681535        45.7569 
 455   0.0000       1.690947        46.0130 
 456   0.0000       1.710289        46.5393 
 457   0.0000       1.719779        46.7976 
 458   0.0000       1.726360        46.9766 
 459   0.0000       1.731623        47.1198 
 460   0.0000       1.749034        47.5936 
 461   0.0000       1.753056        47.7031 
 462   0.0000       1.768419        48.1211 
 463   0.0000       1.775202        48.3057 
 464   0.0000       1.797169        48.9035 
 465   0.0000       1.798974        48.9526 
 466   0.0000       1.804077        49.0914 
 467   0.0000       1.810388        49.2632 
 468   0.0000       1.812065        49.3088 
 469   0.0000       1.821450        49.5642 
 470   0.0000       1.827557        49.7304 
 471   0.0000       1.836506        49.9739 
 472   0.0000       1.838300        50.0227 
 473   0.0000       1.847902        50.2840 
 474   0.0000       1.852483        50.4086 
 475   0.0000       1.862086        50.6699 
 476   0.0000       1.871820        50.9348 
 477   0.0000       1.880156        51.1617 
 478   0.0000       1.882589        51.2278 
 479   0.0000       1.886565        51.3361 
 480   0.0000       1.891819        51.4790 
 481   0.0000       1.896286        51.6006 
 482   0.0000       1.900332        51.7107 
 483   0.0000       1.905529        51.8521 
 484   0.0000       1.909758        51.9672 
 485   0.0000       1.913970        52.0818 
 486   0.0000       1.917469        52.1770 
 487   0.0000       1.920356        52.2555 
 488   0.0000       1.925612        52.3986 
 489   0.0000       1.928340        52.4728 
 490   0.0000       1.932400        52.5833 
 491   0.0000       1.937749        52.7288 
 492   0.0000       1.946526        52.9677 
 493   0.0000       1.949493        53.0484 
 494   0.0000       1.952987        53.1435 
 495   0.0000       1.956715        53.2449 
 496   0.0000       1.960738        53.3544 
 497   0.0000       1.970283        53.6141 
 498   0.0000       1.976675        53.7881 
 499   0.0000       1.980604        53.8950 
 500   0.0000       2.002590        54.4932 
 501   0.0000       2.005427        54.5704 
 502   0.0000       2.007664        54.6313 
 503   0.0000       2.012747        54.7696 
 504   0.0000       2.016023        54.8588 
 505   0.0000       2.025535        55.1176 
 506   0.0000       2.031434        55.2781 
 507   0.0000       2.035340        55.3844 
 508   0.0000       2.045987        55.6741 
 509   0.0000       2.059781        56.0495 
 510   0.0000       2.062654        56.1277 
 511   0.0000       2.065548        56.2064 
 512   0.0000       2.075826        56.4861 
 513   0.0000       2.081278        56.6344 
 514   0.0000       2.085808        56.7577 
 515   0.0000       2.090498        56.8853 
 516   0.0000       2.095869        57.0315 
 517   0.0000       2.104293        57.2607 
 518   0.0000       2.116231        57.5856 
 519   0.0000       2.117313        57.6150 
 520   0.0000       2.131488        58.0007 
 521   0.0000       2.134184        58.0741 
 522   0.0000       2.143968        58.3403 
 523   0.0000       2.146559        58.4108 
 524   0.0000       2.154206        58.6189 
 525   0.0000       2.158239        58.7287 
 526   0.0000       2.166201        58.9453 
 527   0.0000       2.170494        59.0622 
 528   0.0000       2.179931        59.3189 
 529   0.0000       2.188303        59.5467 
 530   0.0000       2.192200        59.6528 
 531   0.0000       2.200973        59.8915 
 532   0.0000       2.206312        60.0368 
 533   0.0000       2.216896        60.3248 
 534   0.0000       2.220475        60.4222 
 535   0.0000       2.231164        60.7131 
 536   0.0000       2.232509        60.7497 
 537   0.0000       2.239483        60.9394 
 538   0.0000       2.256362        61.3987 
 539   0.0000       2.257742        61.4363 
 540   0.0000       2.260548        61.5126 
 541   0.0000       2.265030        61.6346 
 542   0.0000       2.269854        61.7659 
 543   0.0000       2.278314        61.9961 
 544   0.0000       2.288692        62.2785 
 545   0.0000       2.301744        62.6336 
 546   0.0000       2.305325        62.7311 
 547   0.0000       2.309834        62.8538 
 548   0.0000       2.315875        63.0182 
 549   0.0000       2.317482        63.0619 
 550   0.0000       2.329423        63.3868 
 551   0.0000       2.332520        63.4711 
 552   0.0000       2.340242        63.6812 
 553   0.0000       2.343175        63.7610 
 554   0.0000       2.360228        64.2251 
 555   0.0000       2.369024        64.4644 
 556   0.0000       2.369877        64.4876 
 557   0.0000       2.375068        64.6289 
 558   0.0000       2.384821        64.8943 
 559   0.0000       2.396938        65.2240 
 560   0.0000       2.400626        65.3244 
 561   0.0000       2.414115        65.6914 
 562   0.0000       2.430155        66.1279 
 563   0.0000       2.436417        66.2983 
 564   0.0000       2.445165        66.5363 
 565   0.0000       2.458935        66.9110 
 566   0.0000       2.492837        67.8335 
 567   0.0000       2.509107        68.2763 
 568   0.0000       2.515597        68.4529 
 569   0.0000       2.521259        68.6069 
 570   0.0000       2.523427        68.6659 
 571   0.0000       2.528852        68.8136 
 572   0.0000       2.536292        69.0160 
 573   0.0000       2.542592        69.1874 
 574   0.0000       2.544101        69.2285 
 575   0.0000       2.552764        69.4642 
 576   0.0000       2.556593        69.5684 
 577   0.0000       2.559858        69.6573 
 578   0.0000       2.561605        69.7048 
 579   0.0000       2.565929        69.8225 
 580   0.0000       2.567985        69.8784 
 581   0.0000       2.572154        69.9919 
 582   0.0000       2.579628        70.1952 
 583   0.0000       2.585877        70.3653 
 584   0.0000       2.591416        70.5160 
 585   0.0000       2.594878        70.6102 
 586   0.0000       2.600576        70.7653 
 587   0.0000       2.605006        70.8858 
 588   0.0000       2.619017        71.2671 
 589   0.0000       2.620722        71.3135 
 590   0.0000       2.624773        71.4237 
 591   0.0000       2.633565        71.6629 
 592   0.0000       2.647256        72.0355 
 593   0.0000       2.656977        72.3000 
 594   0.0000       2.661100        72.4122 
 595   0.0000       2.674643        72.7807 
 596   0.0000       2.685089        73.0650 
 597   0.0000       2.696062        73.3636 
 598   0.0000       2.701871        73.5216 
 599   0.0000       2.708180        73.6933 
 600   0.0000       2.716516        73.9202 
 601   0.0000       2.718858        73.9839 
 602   0.0000       2.722503        74.0831 
 603   0.0000       2.740806        74.5811 
 604   0.0000       2.742307        74.6220 
 605   0.0000       2.748453        74.7892 
 606   0.0000       2.755478        74.9804 
 607   0.0000       2.772656        75.4478 
 608   0.0000       2.777865        75.5895 
 609   0.0000       2.784487        75.7698 
 610   0.0000       2.788157        75.8696 
 611   0.0000       2.800435        76.2037 
 612   0.0000       2.809746        76.4571 
 613   0.0000       2.813169        76.5502 
 614   0.0000       2.824324        76.8538 
 615   0.0000       2.825460        76.8847 
 616   0.0000       2.828342        76.9631 
 617   0.0000       2.832249        77.0694 
 618   0.0000       2.836373        77.1816 
 619   0.0000       2.841881        77.3315 
 620   0.0000       2.845755        77.4369 
 621   0.0000       2.849806        77.5472 
 622   0.0000       2.861460        77.8643 
 623   0.0000       2.863987        77.9331 
 624   0.0000       2.869298        78.0776 
 625   0.0000       2.881900        78.4205 
 626   0.0000       2.895643        78.7945 
 627   0.0000       2.898966        78.8849 
 628   0.0000       2.905016        79.0495 
 629   0.0000       2.911211        79.2181 
 630   0.0000       2.925493        79.6067 
 631   0.0000       2.932403        79.7947 
 632   0.0000       2.939456        79.9867 
 633   0.0000       2.961805        80.5948 
 634   0.0000       2.982996        81.1714 
[...]
      dz2     :     0.015855  d :     0.061851
      dxz     :     0.013797
      dyz     :     0.009796
      dx2y2   :     0.011100
      dxy     :     0.011303
 26 C s       :     2.903181  s :     2.903181
      pz      :     1.167429  p :     3.427249
      px      :     1.152951
      py      :     1.106868
      dz2     :     0.014833  d :     0.074664
      dxz     :     0.003753
      dyz     :     0.023501
      dx2y2   :     0.017511
      dxy     :     0.015066
 27 O s       :     3.459379  s :     3.459379
      pz      :     1.699390  p :     4.654286
      px      :     1.671134
      py      :     1.283762
      dz2     :     0.009169  d :     0.061033
      dxz     :     0.005002
      dyz     :     0.012295
      dx2y2   :     0.014870
      dxy     :     0.019697
 28 O s       :     3.544058  s :     3.544058
      pz      :     1.467150  p :     4.673221
      px      :     1.682967
      py      :     1.523104
      dz2     :     0.009283  d :     0.055865
      dxz     :     0.006171
      dyz     :     0.018581
      dx2y2   :     0.010862
      dxy     :     0.010968
 29 O s       :     3.554586  s :     3.554586
      pz      :     1.703421  p :     4.700928
      px      :     1.493477
      py      :     1.504030
      dz2     :     0.006905  d :     0.053697
      dxz     :     0.013815
      dyz     :     0.002806
      dx2y2   :     0.015260
      dxy     :     0.014911
 30 N s       :     3.070402  s :     3.070402
      pz      :     1.231423  p :     3.897953
      px      :     1.163132
      py      :     1.503398
      dz2     :     0.021338  d :     0.096038
      dxz     :     0.030192
      dyz     :     0.012762
      dx2y2   :     0.017268
      dxy     :     0.014479
 31 N s       :     3.066360  s :     3.066360
      pz      :     1.477184  p :     4.047231
      px      :     1.361326
      py      :     1.208721
      dz2     :     0.007773  d :     0.077660
      dxz     :     0.013104
      dyz     :     0.018473
      dx2y2   :     0.018702
      dxy     :     0.019609
 32 O s       :     3.538023  s :     3.538023
      pz      :     1.627932  p :     4.702266
      px      :     1.506803
      py      :     1.567532
      dz2     :     0.007528  d :     0.055626
      dxz     :     0.019035
      dyz     :     0.003318
      dx2y2   :     0.015095
      dxy     :     0.010650
 33 C s       :     2.899436  s :     2.899436
      pz      :     1.160037  p :     3.431161
      px      :     1.095747
      py      :     1.175377
      dz2     :     0.023825  d :     0.075871
      dxz     :     0.009609
      dyz     :     0.008384
      dx2y2   :     0.013534
      dxy     :     0.020518
 34 C s       :     2.901133  s :     2.901133
      pz      :     1.132381  p :     3.421740
      px      :     1.129020
      py      :     1.160339
      dz2     :     0.017133  d :     0.075699
      dxz     :     0.013349
      dyz     :     0.014703
      dx2y2   :     0.022811
      dxy     :     0.007704
 35 C s       :     2.893705  s :     2.893705
      pz      :     1.122442  p :     3.430164
      px      :     1.166642
      py      :     1.141080
      dz2     :     0.010418  d :     0.079342
      dxz     :     0.022989
      dyz     :     0.017583
      dx2y2   :     0.013122
      dxy     :     0.015231
 36 C s       :     2.904356  s :     2.904356
      pz      :     1.075559  p :     3.428195
      px      :     1.172828
      py      :     1.179808
      dz2     :     0.018712  d :     0.074297
      dxz     :     0.012269
      dyz     :     0.014958
      dx2y2   :     0.014741
      dxy     :     0.013617
 37 C s       :     2.897550  s :     2.897550
      pz      :     1.165124  p :     3.419971
      px      :     1.088623
      py      :     1.166224
      dz2     :     0.018369  d :     0.078475
      dxz     :     0.010932
      dyz     :     0.013168
      dx2y2   :     0.018051
      dxy     :     0.017955
 38 C s       :     2.905618  s :     2.905618
      pz      :     1.124119  p :     3.425012
      px      :     1.184156
      py      :     1.116737
      dz2     :     0.019144  d :     0.074307
      dxz     :     0.007633
      dyz     :     0.016047
      dx2y2   :     0.015382
      dxy     :     0.016101
 39 H s       :     0.859734  s :     0.859734
 40 H s       :     0.858061  s :     0.858061
 41 H s       :     0.864961  s :     0.864961
 42 H s       :     0.854071  s :     0.854071
 43 H s       :     0.763588  s :     0.763588
 44 H s       :     0.865808  s :     0.865808
 45 H s       :     0.863455  s :     0.863455
 46 H s       :     0.854767  s :     0.854767
 47 H s       :     0.862144  s :     0.862144
 48 H s       :     0.760870  s :     0.760870
 49 H s       :     0.863346  s :     0.863346
 50 H s       :     0.860451  s :     0.860451
 51 H s       :     0.862840  s :     0.862840
 52 H s       :     0.851586  s :     0.851586
 53 H s       :     0.860594  s :     0.860594
 54 H s       :     0.854438  s :     0.854438
 55 H s       :     0.846394  s :     0.846394
 56 H s       :     0.858423  s :     0.858423
 57 H s       :     0.858129  s :     0.858129
 58 H s       :     0.857937  s :     0.857937
 59 H s       :     0.854554  s :     0.854554
 60 H s       :     0.858967  s :     0.858967
 61 H s       :     0.864737  s :     0.864737
 62 H s       :     0.851482  s :     0.851482
 63 H s       :     0.863073  s :     0.863073
 64 H s       :     0.862850  s :     0.862850
 65 H s       :     0.855303  s :     0.855303
 66 H s       :     0.863758  s :     0.863758
 67 H s       :     0.863684  s :     0.863684
 68 H s       :     0.876007  s :     0.876007
 69 H s       :     0.859180  s :     0.859180
 70 H s       :     0.858347  s :     0.858347
 71 H s       :     0.864984  s :     0.864984
 72 H s       :     0.848262  s :     0.848262
 73 H s       :     0.860557  s :     0.860557
 74 H s       :     0.867244  s :     0.867244
 75 H s       :     0.859933  s :     0.859933
 76 H s       :     0.871117  s :     0.871117
 77 H s       :     0.848083  s :     0.848083
 78 H s       :     0.859932  s :     0.859932
 79 H s       :     0.859312  s :     0.859312
 80 H s       :     0.860554  s :     0.860554
 81 H s       :     0.858225  s :     0.858225
 82 H s       :     0.857789  s :     0.857789
 83 H s       :     0.853709  s :     0.853709
 84 H s       :     0.865968  s :     0.865968
 85 H s       :     0.856853  s :     0.856853
 86 H s       :     0.861731  s :     0.861731
 87 H s       :     0.851320  s :     0.851320
 88 H s       :     0.849345  s :     0.849345
 89 H s       :     0.859216  s :     0.859216
 90 H s       :     0.854986  s :     0.854986


                      *****************************
                      * MAYER POPULATION ANALYSIS *
                      *****************************

  NA   - Mulliken gross atomic population
  ZA   - Total nuclear charge
  QA   - Mulliken gross atomic charge
  VA   - Mayer's total valence
  BVA  - Mayer's bonded valence
  FA   - Mayer's free valence

  ATOM       NA         ZA         QA         VA         BVA        FA
  0 C      6.1118     6.0000    -0.1118     3.8727     3.8727     0.0000
  1 C      5.4732     6.0000     0.5268     3.9348     3.9348     0.0000
  2 C      5.4655     6.0000     0.5345     3.9214     3.9214     0.0000
  3 C      5.3158     6.0000     0.6842     4.0955     4.0955    -0.0000
  4 C      6.2721     6.0000    -0.2721     3.9076     3.9076    -0.0000
  5 C      5.2845     6.0000     0.7155     4.0785     4.0785     0.0000
  6 C      6.1289     6.0000    -0.1289     3.8780     3.8780     0.0000
  7 C      6.2671     6.0000    -0.2671     3.8734     3.8734     0.0000
  8 C      5.7794     6.0000     0.2206     3.9758     3.9758     0.0000
  9 C      6.1585     6.0000    -0.1585     3.9640     3.9640     0.0000
 10 C      6.0486     6.0000    -0.0486     3.8468     3.8468     0.0000
 11 C      6.0786     6.0000    -0.0786     3.8476     3.8476    -0.0000
 12 C      6.3125     6.0000    -0.3125     3.8876     3.8876    -0.0000
 13 C      6.1276     6.0000    -0.1276     4.0115     4.0115     0.0000
 14 C      6.1640     6.0000    -0.1640     3.9687     3.9687     0.0000
 15 C      6.1211     6.0000    -0.1211     3.8836     3.8836    -0.0000
 16 C      5.7629     6.0000     0.2371     3.9765     3.9765    -0.0000
 17 C      6.1217     6.0000    -0.1217     4.0100     4.0100    -0.0000
 18 C      6.1124     6.0000    -0.1124     3.8611     3.8611    -0.0000
 19 C      6.4589     6.0000    -0.4589     3.8987     3.8987    -0.0000
 20 C      6.4377     6.0000    -0.4377     3.8914     3.8914    -0.0000
 21 C      6.4548     6.0000    -0.4548     3.8924     3.8924    -0.0000
 22 N      7.4606     7.0000    -0.4606     3.0828     3.0828     0.0000
 23 N      7.5353     7.0000    -0.5353     3.0257     3.0257    -0.0000
 24 O      8.4812     8.0000    -0.4812     2.0543     2.0543    -0.0000
 25 O      8.5176     8.0000    -0.5176     1.9486     1.9486     0.0000
 26 C      6.4534     6.0000    -0.4534     3.8700     3.8700    -0.0000
 27 O      8.5231     8.0000    -0.5231     1.9460     1.9460     0.0000
 28 O      8.4773     8.0000    -0.4773     2.0700     2.0700    -0.0000
 29 O      8.5097     8.0000    -0.5097     2.0359     2.0359    -0.0000
 30 N      7.4314     7.0000    -0.4314     3.1247     3.1247    -0.0000
 31 N      7.5598     7.0000    -0.5598     3.0115     3.0115     0.0000
 32 O      8.4849     8.0000    -0.4849     2.0551     2.0551    -0.0000
 33 C      6.4521     6.0000    -0.4521     3.8577     3.8577     0.0000
 34 C      6.4419     6.0000    -0.4419     3.8947     3.8947    -0.0000
 35 C      6.4501     6.0000    -0.4501     3.9024     3.9024    -0.0000
 36 C      6.4464     6.0000    -0.4464     3.8571     3.8571     0.0000
 37 C      6.4409     6.0000    -0.4409     3.8830     3.8830    -0.0000
 38 C      6.4510     6.0000    -0.4510     3.8688     3.8688    -0.0000
 39 H      0.8503     1.0000     0.1497     0.9283     0.9283    -0.0000
 40 H      0.8413     1.0000     0.1587     0.9339     0.9339     0.0000
 41 H      0.8540     1.0000     0.1460     0.9286     0.9286    -0.0000
 42 H      0.8223     1.0000     0.1777     0.9339     0.9339     0.0000
 43 H      0.6919     1.0000     0.3081     0.8825     0.8825    -0.0000
 44 H      0.8537     1.0000     0.1463     0.9247     0.9247    -0.0000
 45 H      0.8479     1.0000     0.1521     0.9246     0.9246    -0.0000
 46 H      0.8274     1.0000     0.1726     0.9272     0.9272    -0.0000
 47 H      0.8337     1.0000     0.1663     0.9117     0.9117    -0.0000
 48 H      0.6878     1.0000     0.3122     0.8948     0.8948    -0.0000
 49 H      0.8581     1.0000     0.1419     0.9342     0.9342    -0.0000
 50 H      0.8353     1.0000     0.1647     0.9304     0.9304    -0.0000
 51 H      0.8363     1.0000     0.1637     0.9153     0.9153    -0.0000
 52 H      0.8179     1.0000     0.1821     0.9389     0.9389    -0.0000
 53 H      0.8436     1.0000     0.1564     0.9261     0.9261     0.0000
 54 H      0.8222     1.0000     0.1778     0.9394     0.9394    -0.0000
 55 H      0.8091     1.0000     0.1909     0.9439     0.9439    -0.0000
 56 H      0.8341     1.0000     0.1659     0.9251     0.9251    -0.0000
 57 H      0.8528     1.0000     0.1472     0.9282     0.9282    -0.0000
 58 H      0.8560     1.0000     0.1440     0.9208     0.9208    -0.0000
 59 H      0.8363     1.0000     0.1637     0.9306     0.9306     0.0000
 60 H      0.8368     1.0000     0.1632     0.9340     0.9340    -0.0000
 61 H      0.8545     1.0000     0.1455     0.9315     0.9315    -0.0000
 62 H      0.8312     1.0000     0.1688     0.9459     0.9459    -0.0000
 63 H      0.8501     1.0000     0.1499     0.9258     0.9258    -0.0000
 64 H      0.8315     1.0000     0.1685     0.9097     0.9097     0.0000
 65 H      0.8289     1.0000     0.1711     0.9303     0.9303    -0.0000
 66 H      0.8420     1.0000     0.1580     0.9171     0.9171     0.0000
 67 H      0.8461     1.0000     0.1539     0.9294     0.9294     0.0000
 68 H      0.8726     1.0000     0.1274     0.9234     0.9234     0.0000
 69 H      0.8451     1.0000     0.1549     0.9283     0.9283     0.0000
 70 H      0.8558     1.0000     0.1442     0.9203     0.9203    -0.0000
 71 H      0.8448     1.0000     0.1552     0.9251     0.9251    -0.0000
 72 H      0.8157     1.0000     0.1843     0.9464     0.9464     0.0000
 73 H      0.8495     1.0000     0.1505     0.9326     0.9326     0.0000
 74 H      0.8541     1.0000     0.1459     0.9280     0.9280     0.0000
 75 H      0.8543     1.0000     0.1457     0.9292     0.9292     0.0000
 76 H      0.8628     1.0000     0.1372     0.9233     0.9233    -0.0000
 77 H      0.8120     1.0000     0.1880     0.9467     0.9467    -0.0000
 78 H      0.8471     1.0000     0.1529     0.9310     0.9310    -0.0000
 79 H      0.8445     1.0000     0.1555     0.9318     0.9318    -0.0000
 80 H      0.8335     1.0000     0.1665     0.9296     0.9296     0.0000
 81 H      0.8483     1.0000     0.1517     0.9291     0.9291    -0.0000
 82 H      0.8396     1.0000     0.1604     0.9320     0.9320    -0.0000
 83 H      0.8347     1.0000     0.1653     0.9367     0.9367    -0.0000
 84 H      0.8567     1.0000     0.1433     0.9300     0.9300     0.0000
 85 H      0.8428     1.0000     0.1572     0.9338     0.9338    -0.0000
 86 H      0.8550     1.0000     0.1450     0.9293     0.9293    -0.0000
 87 H      0.8191     1.0000     0.1809     0.9403     0.9403     0.0000
 88 H      0.8137     1.0000     0.1863     0.9419     0.9419    -0.0000
 89 H      0.8515     1.0000     0.1485     0.9258     0.9258    -0.0000
 90 H      0.8395     1.0000     0.1605     0.9329     0.9329    -0.0000

  Mayer bond orders larger than 0.100000
B(  0-C ,  9-C ) :   1.0197 B(  0-C , 22-N ) :   0.9533 B(  0-C , 51-H ) :   0.9374 
B(  0-C , 52-H ) :   0.9235 B(  1-C , 11-C ) :   0.9433 B(  1-C , 29-O ) :   1.7938 
B(  1-C , 30-N ) :   1.1625 B(  2-C , 10-C ) :   0.9245 B(  2-C , 22-N ) :   1.1089 
B(  2-C , 28-O ) :   1.8420 B(  3-C , 23-N ) :   1.1494 B(  3-C , 25-O ) :   1.0495 
B(  3-C , 32-O ) :   1.8337 B(  4-C ,  9-C ) :   1.0238 B(  4-C , 14-C ) :   1.0263 
B(  4-C , 44-H ) :   0.9417 B(  4-C , 45-H ) :   0.9412 B(  5-C , 24-O ) :   1.8187 
B(  5-C , 27-O ) :   1.0582 B(  5-C , 31-N ) :   1.1306 B(  6-C ,  9-C ) :   1.0227 
B(  6-C , 30-N ) :   0.9562 B(  6-C , 46-H ) :   0.9274 B(  6-C , 47-H ) :   0.9348 
B(  7-C , 11-C ) :   0.9983 B(  7-C , 17-C ) :   1.0321 B(  7-C , 49-H ) :   0.9397 
B(  7-C , 50-H ) :   0.9221 B(  8-C , 20-C ) :   1.0582 B(  8-C , 27-O ) :   0.7881 
B(  8-C , 33-C ) :   1.0568 B(  8-C , 36-C ) :   1.0475 B(  9-C , 58-H ) :   0.9288 
B( 10-C , 12-C ) :   1.0079 B( 10-C , 31-N ) :   0.9567 B( 10-C , 60-H ) :   0.9115 
B( 11-C , 23-N ) :   0.9679 B( 11-C , 62-H ) :   0.9055 B( 12-C , 13-C ) :   1.0297 
B( 12-C , 53-H ) :   0.9344 B( 12-C , 54-H ) :   0.9201 B( 13-C , 34-C ) :   1.0438 
B( 13-C , 35-C ) :   1.0554 B( 13-C , 68-H ) :   0.9440 B( 14-C , 15-C ) :   1.0213 
B( 14-C , 18-C ) :   1.0214 B( 14-C , 70-H ) :   0.9296 B( 15-C , 22-N ) :   0.9606 
B( 15-C , 56-H ) :   0.9280 B( 15-C , 64-H ) :   0.9338 B( 16-C , 25-O ) :   0.7993 
B( 16-C , 26-C ) :   1.0535 B( 16-C , 37-C ) :   1.0588 B( 16-C , 38-C ) :   1.0490 
B( 17-C , 19-C ) :   1.0537 B( 17-C , 21-C ) :   1.0443 B( 17-C , 76-H ) :   0.9410 
B( 18-C , 30-N ) :   0.9510 B( 18-C , 66-H ) :   0.9384 B( 18-C , 72-H ) :   0.9213 
B( 19-C , 74-H ) :   0.9556 B( 19-C , 78-H ) :   0.9580 B( 19-C , 80-H ) :   0.9484 
B( 20-C , 39-H ) :   0.9505 B( 20-C , 40-H ) :   0.9506 B( 20-C , 82-H ) :   0.9516 
B( 21-C , 41-H ) :   0.9588 B( 21-C , 42-H ) :   0.9460 B( 21-C , 84-H ) :   0.9602 
B( 23-N , 48-H ) :   0.8416 B( 26-C , 88-H ) :   0.9384 B( 26-C , 89-H ) :   0.9474 
B( 26-C , 90-H ) :   0.9470 B( 31-N , 43-H ) :   0.8549 B( 33-C , 55-H ) :   0.9334 
B( 33-C , 57-H ) :   0.9457 B( 33-C , 59-H ) :   0.9469 B( 34-C , 61-H ) :   0.9596 
B( 34-C , 63-H ) :   0.9578 B( 34-C , 65-H ) :   0.9519 B( 35-C , 67-H ) :   0.9534 
B( 35-C , 69-H ) :   0.9569 B( 35-C , 71-H ) :   0.9525 B( 36-C , 73-H ) :   0.9522 
B( 36-C , 75-H ) :   0.9484 B( 36-C , 77-H ) :   0.9347 B( 37-C , 79-H ) :   0.9541 
B( 37-C , 81-H ) :   0.9485 B( 37-C , 83-H ) :   0.9463 B( 38-C , 85-H ) :   0.9509 
B( 38-C , 86-H ) :   0.9491 B( 38-C , 87-H ) :   0.9421 

-------
TIMINGS
-------

Total SCF time: 0 days 0 hours 14 min 6 sec 

Total time                  ....     846.526 sec
Sum of individual times     ....     845.530 sec  ( 99.9%)

Fock matrix formation       ....     816.388 sec  ( 96.4%)
  XC integration            ....      14.444 sec  (  1.8% of F)
    Basis function eval.    ....       4.627 sec  ( 32.0% of XC)
    Density eval.           ....       2.933 sec  ( 20.3% of XC)
    XC-Functional eval.     ....       2.749 sec  ( 19.0% of XC)
    XC-Potential eval.      ....       3.867 sec  ( 26.8% of XC)
Diagonalization             ....       0.144 sec  (  0.0%)
Density matrix formation    ....       0.066 sec  (  0.0%)
Population analysis         ....       0.103 sec  (  0.0%)
Initial guess               ....       0.152 sec  (  0.0%)
Orbital Transformation      ....       0.000 sec  (  0.0%)
Orbital Orthonormalization  ....       0.119 sec  (  0.0%)
DIIS solution               ....       0.043 sec  (  0.0%)
SOSCF solution              ....       0.096 sec  (  0.0%)
Grid generation             ....      28.537 sec  (  3.4%)

-------------------------   --------------------
FINAL SINGLE POINT ENERGY     -1805.194389995828
-------------------------   --------------------


                            ***************************************
                            *     ORCA property calculations      *
                            ***************************************

                                    ---------------------
                                    Active property flags
                                    ---------------------
   (+) Dipole Moment


------------------------------------------------------------------------------
                       ORCA ELECTRIC PROPERTIES CALCULATION
------------------------------------------------------------------------------

Dipole Moment Calculation                       ... on
Quadrupole Moment Calculation                   ... off
Polarizability Calculation                      ... off
GBWName                                         ... bis_crystal_connect1stscan.gbw
Electron density file                           ... bis_crystal_connect1stscan.scfp
The origin for moment calculation is the CENTER OF MASS  = (15.679609,  9.505336 14.799165)

-------------
DIPOLE MOMENT
-------------
                                X             Y             Z
Electronic contribution:     -8.10230      -7.18686      -5.89664
Nuclear contribution   :      7.82891       6.57401       5.13806
                        -----------------------------------------
Total Dipole Moment    :     -0.27339      -0.61285      -0.75858
                        -----------------------------------------
Magnitude (a.u.)       :      1.01280
Magnitude (Debye)      :      2.57434



--------------------
Rotational spectrum 
--------------------
 
Rotational constants in cm-1:     0.004890     0.001515     0.001442 
Rotational constants in MHz :   146.613010    45.408193    43.228032 

 Dipole components along the rotational axes: 
x,y,z [a.u.] :    -0.225411    -0.911754    -0.379034 
x,y,z [Debye]:    -0.572949    -2.317496    -0.963427 

 

Timings for individual modules:

Sum of individual times         ...      848.122 sec (=  14.135 min)
GTO integral calculation        ...        1.439 sec (=   0.024 min)   0.2 %
SCF iterations                  ...      846.683 sec (=  14.111 min)  99.8 %
                             ****ORCA TERMINATED NORMALLY****
TOTAL RUN TIME: 0 days 0 hours 14 minutes 9 seconds 321 msec
