
                                 *****************
                                 * O   R   C   A *
                                 *****************

           --- An Ab Initio, DFT and Semiempirical electronic structure package ---

                  #######################################################
                  #                        -***-                        #
                  #          Department of theory and spectroscopy      #
                  #               Directorship: Frank Neese             #
                  #        Max Planck Institute fuer Kohlenforschung    #
                  #                Kaiser Wilhelm Platz 1               #
                  #                 D-45470 Muelheim/Ruhr               #
                  #                      Germany                        #
                  #                                                     #
                  #                  All rights reserved                #
                  #                        -***-                        #
                  #######################################################


                         Program Version 4.2.1 -  RELEASE  -


 With contributions from (in alphabetic order):
   Daniel Aravena         : Magnetic Suceptibility
   Michael Atanasov       : Ab Initio Ligand Field Theory (pilot matlab implementation)
   Alexander A. Auer      : GIAO ZORA, VPT2
   Ute Becker             : Parallelization
   Giovanni Bistoni       : ED, misc. LED, open-shell LED, HFLD
   Martin Brehm           : Molecular dynamics
   Dmytro Bykov           : SCF Hessian
   Vijay G. Chilkuri      : MRCI spin determinant printing, contributions to CSF-ICE
   Dipayan Datta          : RHF DLPNO-CCSD density
   Achintya Kumar Dutta   : EOM-CC, STEOM-CC
   Dmitry Ganyushin       : Spin-Orbit,Spin-Spin,Magnetic field MRCI
   Miquel Garcia          : C-PCM Hessian, Gaussian charge scheme
   Yang Guo               : DLPNO-NEVPT2, CIM, IAO-localization
   Andreas Hansen         : Spin unrestricted coupled pair/coupled cluster methods
   Benjamin Helmich-Paris : CASSCF linear response (MC-RPA)
   Lee Huntington         : MR-EOM, pCC
   Robert Izsak           : Overlap fitted RIJCOSX, COSX-SCS-MP3, EOM
   Christian Kollmar      : KDIIS, OOCD, Brueckner-CCSD(T), CCSD density
   Simone Kossmann        : Meta GGA functionals, TD-DFT gradient, OOMP2, MP2 Hessian
   Martin Krupicka        : AUTO-CI
   Lucas Lang             : DCDCAS
   Dagmar Lenk            : GEPOL surface, SMD
   Dimitrios Liakos       : Extrapolation schemes; Compound Job, initial MDCI parallelization
   Dimitrios Manganas     : Further ROCIS development; embedding schemes
   Dimitrios Pantazis     : SARC Basis sets
   Taras Petrenko         : DFT Hessian,TD-DFT gradient, ASA, ECA, R-Raman, ABS, FL, XAS/XES, NRVS
   Peter Pinski           : DLPNO-MP2, DLPNO-MP2 Gradient
   Christoph Reimann      : Effective Core Potentials
   Marius Retegan         : Local ZFS, SOC
   Christoph Riplinger    : Optimizer, TS searches, QM/MM, DLPNO-CCSD(T), (RO)-DLPNO pert. Triples
   Tobias Risthaus        : Range-separated hybrids, TD-DFT gradient, RPA, STAB
   Michael Roemelt        : Original ROCIS implementation
   Masaaki Saitow         : Open-shell DLPNO-CCSD energy and density
   Barbara Sandhoefer     : DKH picture change effects
   Avijit Sen             : IP-ROCIS
   Kantharuban Sivalingam : CASSCF convergence, NEVPT2, FIC-MRCI
   Bernardo de Souza      : ESD, SOC TD-DFT
   Georgi Stoychev        : AutoAux, RI-MP2 NMR
   Willem Van den Heuvel  : Paramagnetic NMR
   Boris Wezisla          : Elementary symmetry handling
   Frank Wennmohs         : Technical directorship


 We gratefully acknowledge several colleagues who have allowed us to
 interface, adapt or use parts of their codes:
   Stefan Grimme, W. Hujo, H. Kruse,             : VdW corrections, initial TS optimization,
                  C. Bannwarth                     DFT functionals, gCP, sTDA/sTD-DF
   Ed Valeev, F. Pavosevic, A. Kumar             : LibInt (2-el integral package), F12 methods
   Garnet Chan, S. Sharma, J. Yang, R. Olivares  : DMRG
   Ulf Ekstrom                                   : XCFun DFT Library
   Mihaly Kallay                                 : mrcc  (arbitrary order and MRCC methods)
   Andreas Klamt, Michael Diedenhofen            : otool_cosmo (COSMO solvation model)
   Jiri Pittner, Ondrej Demel                    : Mk-CCSD
   Frank Weinhold                                : gennbo (NPA and NBO analysis)
   Christopher J. Cramer and Donald G. Truhlar   : smd solvation model
   Lars Goerigk                                  : TD-DFT with DH, B97 family of functionals
   V. Asgeirsson, H. Jonsson                     : NEB implementation
   FAccTs GmbH                                   : IRC, NEB, NEB-TS, Multilevel, MM, QM/MM, CI optimization
   S Lehtola, MJT Oliveira, MAL Marques          : LibXC Library


 Your calculation uses the libint2 library for the computation of 2-el integrals
 For citations please refer to: http://libint.valeyev.net

 Your ORCA version has been built with support for libXC version: 4.2.3
 For citations please refer to: https://tddft.org/programs/libxc/

 This ORCA versions uses:
   CBLAS   interface :  Fast vector & matrix operations
   LAPACKE interface :  Fast linear algebra routines
   SCALAPACK package :  Parallel linear algebra routines


XCFun DFT library Copyright 2009-2010 Ulf Ekstrom and contributors.
See http://admol.org/xcfun for more information. This is free soft-
ware; see the source code for copying conditions. There is ABSOLUTELY
NO WARRANTY; not even for MERCHANTABILITY or FITNESS FOR A PARTICULAR
PURPOSE. For details see the documentation. Scientific users of this 
library should cite U. Ekstrom, L. Visscher, R. Bast, A. J. Thorvald-
sen and K. Ruud; J.Chem.Theor.Comp. 2010, DOI: 10.1021/ct100117s
XCFun Version 0.99 
----- Orbital basis set information -----
Your calculation utilizes the basis: 6-31G*
   H-He, Li-Ne : W. J. Hehre, R. Ditchfield and J.A. Pople, J. Chem. Phys. 56, 2257 (1972).
                 Note: He and Ne are unpublished basis sets taken from the Gaussian program.
                 Note: Li and B from J. D. Dill and J. A. Pople, J. Chem. Phys. 62, 2921 (1975).
   Na - Ar     : M. M. Francl, W. J. Pietro, W. J. Hehre, J. S. Binkley, M. S. Gordon, 
                 D. J. DeFrees and J. A. Pople, J. Chem. Phys. 77, 3654 (1982).
   K - Zn      : V. A. Rassolov, J. A. Pople, M. A. Ratner, and T. L. Windus, J. Chem. Phys. 109, 1223 (1998).

================================================================================
                                        WARNINGS
                       Please study these warnings very carefully!
================================================================================


INFO   : the flag for use of LIBINT has been found!

================================================================================
                                       INPUT FILE
================================================================================
NAME = biscrystal3rd.inp
|  1> # ================================================================
|  2> # Orca input file made in Gabedit
|  3> # ================================================================
|  4> ! CAM-B3LYP 6-31G*
|  5>  
|  6> %geom scan
|  7> 
|  8> D 24 12 2 31 = -180, 180, 18
|  9> D 32 11 3 23 = -180, 180 , 18
| 10> 
| 11> # Scan the  dihedral from -180 to 180 in 18 steps
| 12> 
| 13> end
| 14> end
| 15> * xyz 0   1
| 16> C          5.40600        5.09700        6.71000
| 17> C          8.11400        2.78900        8.59600
| 18> C          7.49600        6.18800        6.17300
| 19> C          8.84600        2.52200       12.01400
| 20> C          4.90000        2.81900        5.83700
| 21> C          8.60700        8.38400        4.37800
| 22> C          5.65800        3.03500        8.19800
| 23> C          8.05200        5.01500        9.70200
| 24> C          8.49800       10.72300        3.66100
| 25> C          4.89300        3.70300        7.08000
| 26> C          8.82700        6.19400        5.39400
| 27> C          7.98100        3.50400        9.93400
| 28> C          9.87200        5.40600        6.19300
| 29> C         11.15100        5.08300        5.42700
| 30> C          6.35400        2.68400        5.42400
| 31> C          6.91300        4.04400        5.03300
| 32> C         10.10800        1.44200       13.84100
| 33> C          7.70700        5.88000       10.89900
| 34> C          7.15100        2.00000        6.52500
| 35> C          6.25800        5.78100       11.26600
| 36> C          9.37600       11.89700        4.01500
| 37> C          8.08000        7.32300       10.56200
| 38> N          6.71900        5.06200        6.07000
| 39> N          9.06100        3.06300       10.81100
| 40> O          7.67100        8.04200        3.70800
| 41> O         10.00000        2.03000       12.50000
| 42> C          9.19900        0.25000       13.97200
| 43> O          9.15400        9.61200        4.38500
| 44> O          7.17700        7.11900        6.88800
| 45> O          9.22500        2.38900        8.24200
| 46> N          7.03800        2.68800        7.80800
| 47> N          9.28200        7.56600        5.20300
| 48> O          7.78600        2.49900       12.58900
| 49> C          7.11200       10.92800        4.16300
| 50> C         12.12200        4.38800        6.36800
| 51> C         10.90000        4.20000        4.25700
| 52> C          8.56900       10.44900        2.17700
| 53> C         11.50800        1.01200       13.92200
| 54> C          9.89700        2.56100       14.83900
| 55> H          9.08100       12.67300        3.53300
| 56> H         10.28500       11.69900        3.77800
| 57> H          7.83500        7.89600       11.29100
| 58> H          7.61400        7.59700        9.76900
| 59> H          9.98000        7.85000        5.61800
| 60> H          4.52100        1.94800        6.03700
| 61> H          4.38100        3.22700        5.12600
| 62> H          5.68500        3.63000        8.96500
| 63> H          5.19100        2.22800        8.46600
| 64> H          9.87200        3.15600       10.54000
| 65> H          8.95100        5.23600        9.41300
| 66> H          7.45000        5.24100        8.97700
| 67> H          4.77100        5.52000        6.11000
| 68> H          5.45900        5.63900        7.51400
| 69> H         10.10600        5.91700        6.98400
| 70> H          9.47100        4.57500        6.49100
| 71> H          6.57300       10.16800        3.93100
| 72> H          7.86100        3.95500        4.85000
| 73> H          6.74000       11.71700        3.76200
| 74> H          3.96100        3.79800        7.37200
| 75> H          7.12800       11.03000        5.11700
| 76> H          8.69600        5.77000        4.52000
| 77> H         12.13500        4.84700        7.21100
| 78> H          7.11800        3.27800       10.34000
| 79> H         13.00200        4.39800        5.98500
| 80> H          6.48100        4.34000        4.21500
| 81> H         11.84200        3.48000        6.50300
| 82> H          6.83600        1.08800        6.62500
| 83> H         10.49300        3.38400        4.55300
| 84> H         11.55500        5.91900        5.11500
| 85> H         11.73200        4.00400        3.82000
| 86> H          6.38600        2.10900        4.63100
| 87> H         10.31300        4.64600        3.64100
| 88> H          8.08500        1.96400        6.26500
| 89> H          9.48600       10.34800        1.91300
| 90> H          5.72000        6.05700       10.52100
| 91> H          8.17800       11.18300        1.69700
| 92> H          8.24500        5.58700       11.66400
| 93> H          8.08700        9.64300        1.97700
| 94> H          6.07900        6.35100       12.01800
| 95> H         11.60700        0.16400       13.48400
| 96> H          6.04700        4.87400       11.49500
| 97> H         11.76400        0.92900       14.84300
| 98> H          9.32000       12.06500        4.95900
| 99> H         12.06800        1.66200       13.49100
|100> H          9.02700        7.38200       10.41300
|101> H         10.39300        3.33500       14.56200
|102> H         10.20200        2.27900       15.70500
|103> H          8.96300        2.77900       14.88400
|104> H          8.29000        0.54800       14.05700
|105> H          9.44300       -0.25500       14.75200
|106> H          9.28200       -0.30400       13.19300
|107> *
|108> 
|109>                          ****END OF INPUT****
================================================================================

                       ****************************
                       * Single Point Calculation *
                       ****************************

---------------------------------
CARTESIAN COORDINATES (ANGSTROEM)
---------------------------------
  C      5.406000    5.097000    6.710000
  C      8.114000    2.789000    8.596000
  C      7.496000    6.188000    6.173000
  C      8.846000    2.522000   12.014000
  C      4.900000    2.819000    5.837000
  C      8.607000    8.384000    4.378000
  C      5.658000    3.035000    8.198000
  C      8.052000    5.015000    9.702000
  C      8.498000   10.723000    3.661000
  C      4.893000    3.703000    7.080000
  C      8.827000    6.194000    5.394000
  C      7.981000    3.504000    9.934000
  C      9.872000    5.406000    6.193000
  C     11.151000    5.083000    5.427000
  C      6.354000    2.684000    5.424000
  C      6.913000    4.044000    5.033000
  C     10.108000    1.442000   13.841000
  C      7.707000    5.880000   10.899000
  C      7.151000    2.000000    6.525000
  C      6.258000    5.781000   11.266000
  C      9.376000   11.897000    4.015000
  C      8.080000    7.323000   10.562000
  N      6.719000    5.062000    6.070000
  N      9.061000    3.063000   10.811000
  O      7.671000    8.042000    3.708000
  O     10.000000    2.030000   12.500000
  C      9.199000    0.250000   13.972000
  O      9.154000    9.612000    4.385000
  O      7.177000    7.119000    6.888000
  O      9.225000    2.389000    8.242000
  N      7.038000    2.688000    7.808000
  N      9.282000    7.566000    5.203000
  O      7.786000    2.499000   12.589000
  C      7.112000   10.928000    4.163000
  C     12.122000    4.388000    6.368000
  C     10.900000    4.200000    4.257000
  C      8.569000   10.449000    2.177000
  C     11.508000    1.012000   13.922000
  C      9.897000    2.561000   14.839000
  H      9.081000   12.673000    3.533000
  H     10.285000   11.699000    3.778000
  H      7.835000    7.896000   11.291000
  H      7.614000    7.597000    9.769000
  H      9.980000    7.850000    5.618000
  H      4.521000    1.948000    6.037000
  H      4.381000    3.227000    5.126000
  H      5.685000    3.630000    8.965000
  H      5.191000    2.228000    8.466000
  H      9.872000    3.156000   10.540000
  H      8.951000    5.236000    9.413000
  H      7.450000    5.241000    8.977000
  H      4.771000    5.520000    6.110000
  H      5.459000    5.639000    7.514000
  H     10.106000    5.917000    6.984000
  H      9.471000    4.575000    6.491000
  H      6.573000   10.168000    3.931000
  H      7.861000    3.955000    4.850000
  H      6.740000   11.717000    3.762000
  H      3.961000    3.798000    7.372000
  H      7.128000   11.030000    5.117000
  H      8.696000    5.770000    4.520000
  H     12.135000    4.847000    7.211000
  H      7.118000    3.278000   10.340000
  H     13.002000    4.398000    5.985000
  H      6.481000    4.340000    4.215000
  H     11.842000    3.480000    6.503000
  H      6.836000    1.088000    6.625000
  H     10.493000    3.384000    4.553000
  H     11.555000    5.919000    5.115000
  H     11.732000    4.004000    3.820000
  H      6.386000    2.109000    4.631000
  H     10.313000    4.646000    3.641000
  H      8.085000    1.964000    6.265000
  H      9.486000   10.348000    1.913000
  H      5.720000    6.057000   10.521000
  H      8.178000   11.183000    1.697000
  H      8.245000    5.587000   11.664000
  H      8.087000    9.643000    1.977000
  H      6.079000    6.351000   12.018000
  H     11.607000    0.164000   13.484000
  H      6.047000    4.874000   11.495000
  H     11.764000    0.929000   14.843000
  H      9.320000   12.065000    4.959000
  H     12.068000    1.662000   13.491000
  H      9.027000    7.382000   10.413000
  H     10.393000    3.335000   14.562000
  H     10.202000    2.279000   15.705000
  H      8.963000    2.779000   14.884000
  H      8.290000    0.548000   14.057000
  H      9.443000   -0.255000   14.752000
  H      9.282000   -0.304000   13.193000

----------------------------
CARTESIAN COORDINATES (A.U.)
----------------------------
  NO LB      ZA    FRAG     MASS         X           Y           Z
   0 C     6.0000    0    12.011   10.215859    9.631934   12.680062
   1 C     6.0000    0    12.011   15.333238    5.270446   16.244086
   2 C     6.0000    0    12.011   14.165387   11.693625   11.665279
   3 C     6.0000    0    12.011   16.716517    4.765889   22.703170
   4 C     6.0000    0    12.011    9.259658    5.327138   11.030331
   5 C     6.0000    0    12.011   16.264873   15.843464    8.273221
   6 C     6.0000    0    12.011   10.692070    5.735319   15.491975
   7 C     6.0000    0    12.011   15.216075    9.476977   18.334123
   8 C     6.0000    0    12.011   16.058893   20.263533    6.918287
   9 C     6.0000    0    12.011    9.246430    6.997656   13.379261
  10 C     6.0000    0    12.011   16.680613   11.704964   10.193183
  11 C     6.0000    0    12.011   15.081904    6.621600   18.772539
  12 C     6.0000    0    12.011   18.655376   10.215859   11.703074
  13 C     6.0000    0    12.011   21.072336    9.605478   10.255544
  14 C     6.0000    0    12.011   12.007320    5.072025   10.249875
  15 C     6.0000    0    12.011   13.063677    7.642052    9.510992
  16 C     6.0000    0    12.011   19.101352    2.724985   26.155699
  17 C     6.0000    0    12.011   14.564119   11.111590   20.596125
  18 C     6.0000    0    12.011   13.513432    3.779452   12.330463
  19 C     6.0000    0    12.011   11.825906   10.924507   21.289655
  20 C     6.0000    0    12.011   17.718072   22.482072    7.587250
  21 C     6.0000    0    12.011   15.268987   13.838464   19.959287
  22 N     7.0000    0    14.007   12.697070    9.565794   11.470638
  23 N     7.0000    0    14.007   17.122808    5.788231   20.429829
  24 O     8.0000    0    15.999   14.496089   15.197178    7.007105
  25 O     8.0000    0    15.999   18.897261    3.836144   23.621577
  26 C     6.0000    0    12.011   17.383591    0.472432   26.403254
  27 O     8.0000    0    15.999   17.298553   18.164048    8.286449
  28 O     8.0000    0    15.999   13.562564   13.452960   13.016434
  29 O     8.0000    0    15.999   17.432724    4.514556   15.575123
  30 N     7.0000    0    14.007   13.299893    5.079584   14.754982
  31 N     7.0000    0    14.007   17.540438   14.297668    9.832245
  32 O     8.0000    0    15.999   14.713408    4.722426   23.789762
  33 C     6.0000    0    12.011   13.439732   20.650927    7.866930
  34 C     6.0000    0    12.011   22.907260    8.292118   12.033776
  35 C     6.0000    0    12.011   20.598015    7.936850    8.044564
  36 C     6.0000    0    12.011   16.193063   19.745748    4.113934
  37 C     6.0000    0    12.011   21.746968    1.912403   26.308767
  38 C     6.0000    0    12.011   18.702620    4.839589   28.041646
  39 H     1.0000    0     1.008   17.160603   23.948499    6.676402
  40 H     1.0000    0     1.008   19.435833   22.107906    7.139385
  41 H     1.0000    0     1.008   14.806004   14.921278   21.336898
  42 H     1.0000    0     1.008   14.388375   14.356249   18.460735
  43 H     1.0000    0     1.008   18.859467   14.834350   10.616481
  44 H     1.0000    0     1.008    8.543452    3.681187   11.408277
  45 H     1.0000    0     1.008    8.278890    6.098146    9.686736
  46 H     1.0000    0     1.008   10.743093    6.859706   16.941395
  47 H     1.0000    0     1.008    9.809568    4.210310   15.998421
  48 H     1.0000    0     1.008   18.655376    5.963976   19.917713
  49 H     1.0000    0     1.008   16.914939    9.894606   17.787992
  50 H     1.0000    0     1.008   14.078460    9.904055   16.964072
  51 H     1.0000    0     1.008    9.015883   10.431288   11.546227
  52 H     1.0000    0     1.008   10.316015   10.656166   14.199402
  53 H     1.0000    0     1.008   19.097572   11.181510   13.197847
  54 H     1.0000    0     1.008   17.897596    8.645497   12.266212
  55 H     1.0000    0     1.008   12.421170   19.214735    7.428513
  56 H     1.0000    0     1.008   14.855137    7.473867    9.165172
  57 H     1.0000    0     1.008   12.736754   22.141921    7.109150
  58 H     1.0000    0     1.008    7.485205    7.177180   13.931061
  59 H     1.0000    0     1.008   13.469968   20.843679    9.669729
  60 H     1.0000    0     1.008   16.433058   10.903720    8.541562
  61 H     1.0000    0     1.008   22.931827    9.159503   13.626815
  62 H     1.0000    0     1.008   13.451071    6.194522   19.539768
  63 H     1.0000    0     1.008   24.570219    8.311016   11.310011
  64 H     1.0000    0     1.008   12.247315    8.201411    7.965196
  65 H     1.0000    0     1.008   22.378137    6.576247   12.288889
  66 H     1.0000    0     1.008   12.918168    2.056022   12.519436
  67 H     1.0000    0     1.008   19.828896    6.394833    8.603923
  68 H     1.0000    0     1.008   21.835785   11.185289    9.665949
  69 H     1.0000    0     1.008   22.170267    7.566463    7.218754
  70 H     1.0000    0     1.008   12.067791    3.985432    8.751322
  71 H     1.0000    0     1.008   19.488746    8.779668    6.880493
  72 H     1.0000    0     1.008   15.278436    3.711422   11.839134
  73 H     1.0000    0     1.008   17.925942   19.554886    3.615046
  74 H     1.0000    0     1.008   10.809233   11.446071   19.881809
  75 H     1.0000    0     1.008   15.454180   21.132807    3.206865
  76 H     1.0000    0     1.008   15.580792   10.557900   22.041766
  77 H     1.0000    0     1.008   15.282215   18.222629    3.735989
  78 H     1.0000    0     1.008   11.487645   12.001651   22.710729
  79 H     1.0000    0     1.008   21.934051    0.309915   25.481067
  80 H     1.0000    0     1.008   11.427174    9.210525   21.722402
  81 H     1.0000    0     1.008   22.230738    1.755556   28.049205
  82 H     1.0000    0     1.008   17.612248   22.799546    9.371152
  83 H     1.0000    0     1.008   22.805215    3.140725   25.494295
  84 H     1.0000    0     1.008   17.058558   13.949958   19.677718
  85 H     1.0000    0     1.008   19.639924    6.302237   27.518192
  86 H     1.0000    0     1.008   19.278986    4.306686   29.678149
  87 H     1.0000    0     1.008   16.937615    5.251549   28.126684
  88 H     1.0000    0     1.008   15.665830    1.035570   26.563880
  89 H     1.0000    0     1.008   17.844684   -0.481880   27.877240
  90 H     1.0000    0     1.008   17.540438   -0.574477   24.931157

--------------------------------
INTERNAL COORDINATES (ANGSTROEM)
--------------------------------
 C      0   0   0     0.000000000000     0.00000000     0.00000000
 C      1   0   0     4.027049043655     0.00000000     0.00000000
 C      1   2   0     2.418005376338    77.37132145     0.00000000
 C      2   1   3     3.505686380725   129.84251566   106.31610023
 C      1   2   3     2.491475265781    77.09435151   126.00137261
 C      3   1   2     3.046106038863   140.47969759   170.55849984
 C      5   1   2     2.489084369803    61.73467758    34.79092272
 C      2   1   3     2.486394176312    71.24354080    67.47914269
 C      6   3   1     2.448855038584   147.65909830    55.21051903
 C      7   5   1     1.510421464360    35.11876678    32.04135553
 C      3   1   2     1.542218531856   149.30572354    72.04391460
 C      2   1   3     1.522878196049    94.79917923    94.54546028
 C     11   3   1     1.533417751299   108.84174918   274.30361834
 C     13  11   3     1.525426497738   114.74329166   168.17010237
 C      5   1   2     1.517534184129    88.97485230   305.92570015
 C     15   5   1     1.521499917844   110.02559269   327.89242545
 C      4   2   1     2.469204932767   149.47843120   175.98829030
 C      8   2   1     1.516594540410   150.15560779   110.97611090
 C     15   5   1     1.521599815983   110.17736751    93.49828301
 C     18   8   2     1.498029038437   112.06799654   303.11408854
 C      9   6   3     1.508136598588   130.45756357   102.33904267
 C     18   8   2     1.528053336765   107.99983040   180.99224676
 N      3   1   2     1.371938045248    32.52386387    62.93398253
 N      4   2   1     1.336456134709    28.97082232   267.66980485
 O      6   3   1     1.200816388962    80.74505502   331.94405891
 O      4   2   1     1.345353485148   123.99808982   200.21719815
 C     17   4   2     1.504761110609    95.86290036   277.84046341
 O      6   3   1     1.344337011318   143.50121640   112.13027392
 O      3   1   2     1.216448519256    89.31930201   249.78833621
 O      2   1   3     1.232735575864   131.11140931   318.73220748
 N      2   1   3     1.337505514007    39.31998779   226.00985706
 N      6   3   1     1.343642065433    51.86750007   183.70566287
 O      4   2   1     1.206131833590   106.42459332    43.07842560
 C      9   6   3     1.488296005504    94.25847520   340.17403064
 C     14  13  11     1.520311481243   108.75339723   176.23339624
 C     14  13  11     1.487141553451   112.28892177   296.77692190
 C      9   6   3     1.510752461524    96.44692588   225.83418182
 C     17   4   2     1.466785942120   131.06450097    40.67233760
 C     17   4   2     1.514161814338    95.34911443   160.59786609
 H     21   9   6     0.959960936705   109.42093766   177.73864066
 H     21   9   6     0.960028124588   109.43488202    57.76153747
 H     22  18   8     0.959059435072   109.52443345   177.53501096
 H     22  18   8     0.959729649433   109.46979661    57.49417652
 H     32   6   3     0.860281930532   120.18662164   214.53039185
 H      5   1   2     0.970712109742   145.84273269    72.63100303
 H      5   1   2     0.970229869670    88.90708946   195.37950062
 H      7   5   1     0.971104010907   144.17578007    27.16780690
 H      7   5   1     0.970135042146    92.47910424   152.71278453
 H     24   4   2     0.860122665670   118.62424079   225.01292844
 H      8   2   1     0.969826273103    92.77095655   247.05399219
 H      8   2   1     0.969074300557    83.77068698   354.30827971
 H      1   2   3     0.970646176524   168.28836437    95.06029044
 H      1   2   3     0.971076207102    83.99755490   275.45598749
 H     13  11   3     0.970339115980   108.57075808   289.83706674
 H     13  11   3     0.969621575668   108.58557297    46.41746632
 H     34   9   6     0.960179670687   109.40515441   316.73705589
 H     16  15   5     0.969594760712   109.00634120   174.90010115
 H     34   9   6     0.960055206746   109.46071096   196.87863540
 H     10   7   5     0.981281305233   107.67410901   117.10765424
 H     34   9   6     0.959570737361   109.53933013    76.76668781
 H     11   3   1     0.980210691637   109.47288102    33.92700145
 H     35  14  13     0.959947394392   109.48821034   315.63135359
 H     12   2   1     0.980143356862   109.42524815    71.78462030
 H     35  14  13     0.959785913629   109.50186875   195.62443372
 H     16  15   5     0.971269272653   108.99138502   292.18806285
 H     35  14  13     0.959733817264   109.46498239    75.59827380
 H     19  15   5     0.970035566358   109.09496527    65.45990716
 H     36  14  13     0.958707984738   109.51897458   301.63971800
 H     14  13  11     0.979518248937   108.96843338    57.65332403
 H     36  14  13     0.960004687489   109.45582825   181.51856243
 H     15   5   1     0.980049998725   107.67921489   210.74189492
 H     36  14  13     0.960698183614   109.38649360    61.64558758
 H     19  15   5     0.970181426332   109.08824581   182.95927041
 H     37   9   6     0.959575948010   109.52697433   276.13247015
 H     20  18   8     0.959502475244   109.45862781   300.71914624
 H     37   9   6     0.960227577192   109.46651238   156.19620634
 H     18   8   2     0.980060202232   108.70429816    63.23315234
 H     37   9   6     0.960187481693   109.46647831    36.21739475
 H     20  18   8     0.960440003332   109.44317649   180.78949163
 H     38  17   4     0.959556668467   109.41109601   279.45301861
 H     20  18   8     0.958963502955   109.50182062    60.78761049
 H     38  17   4     0.959513418353   109.45211046   159.43946452
 H     21   9   6     0.960466553296   109.44612330   297.75573382
 H     38  17   4     0.960135927877   109.47773840    39.41055779
 H     22  18   8     0.960463950391   109.44503740   297.53390795
 H     39  17   4     0.960115097267   109.48853316   290.78919198
 H     39  17   4     0.960471238507   109.45389561   170.83097433
 H     39  17   4     0.960158841026   109.52615812    50.81001004
 H     27  17   4     0.960369720472   109.49186968   308.83694709
 H     27  17   4     0.960708592654   109.49077037   188.93807053
 H     27  17   4     0.959502996348   109.53848422    68.85811165

---------------------------
INTERNAL COORDINATES (A.U.)
---------------------------
 C      0   0   0     0.000000000000     0.00000000     0.00000000
 C      1   0   0     7.610019820377     0.00000000     0.00000000
 C      1   2   0     4.569367951628    77.37132145     0.00000000
 C      2   1   3     6.624787170988   129.84251566   106.31610023
 C      1   2   3     4.708205921765    77.09435151   126.00137261
 C      3   1   2     5.756306188335   140.47969759   170.55849984
 C      5   1   2     4.703687783153    61.73467758    34.79092272
 C      2   1   3     4.698604054207    71.24354080    67.47914269
 C      6   3   1     4.627665364598   147.65909830    55.21051903
 C      7   5   1     2.854282914437    35.11876678    32.04135553
 C      3   1   2     2.914370663866   149.30572354    72.04391460
 C      2   1   3     2.877822725852    94.79917923    94.54546028
 C     11   3   1     2.897739598849   108.84174918   274.30361834
 C     13  11   3     2.882638318151   114.74329166   168.17010237
 C      5   1   2     2.867724006867    88.97485230   305.92570015
 C     15   5   1     2.875218157509   110.02559269   327.89242545
 C      4   2   1     4.666121091457   149.47843120   175.98829030
 C      8   2   1     2.865948337574   150.15560779   110.97611090
 C     15   5   1     2.875406937633   110.17736751    93.49828301
 C     18   8   2     2.830864623307   112.06799654   303.11408854
 C      9   6   3     2.849965143874   130.45756357   102.33904267
 C     18   8   2     2.887602324511   107.99983040   180.99224676
 N      3   1   2     2.592587178227    32.52386387    62.93398253
 N      4   2   1     2.525536084598    28.97082232   267.66980485
 O      6   3   1     2.269214112263    80.74505502   331.94405891
 O      4   2   1     2.542349640246   123.99808982   200.21719815
 C     17   4   2     2.843586396025    95.86290036   277.84046341
 O      6   3   1     2.540428783086   143.50121640   112.13027392
 O      3   1   2     2.298754557408    89.31930201   249.78833621
 O      2   1   3     2.329532633924   131.11140931   318.73220748
 N      2   1   3     2.527519124083    39.31998779   226.00985706
 N      6   3   1     2.539115525684    51.86750007   183.70566287
 O      4   2   1     2.279258846890   106.42459332    43.07842560
 C      9   6   3     2.812471856612    94.25847520   340.17403064
 C     14  13  11     2.872972337806   108.75339723   176.23339624
 C     14  13  11     2.810290258396   112.28892177   296.77692190
 C      9   6   3     2.854908408427    96.44692588   225.83418182
 C     17   4   2     2.771823727692   131.06450097    40.67233760
 C     17   4   2     2.861351151541    95.34911443   160.59786609
 H     21   9   6     1.814063269635   109.42093766   177.73864066
 H     21   9   6     1.814190236333   109.43488202    57.76153747
 H     22  18   8     1.812359678439   109.52443345   177.53501096
 H     22  18   8     1.813626200032   109.46979661    57.49417652
 H     32   6   3     1.625697246667   120.18662164   214.53039185
 H      5   1   2     1.834380042294   145.84273269    72.63100303
 H      5   1   2     1.833468740627    88.90708946   195.37950062
 H      7   5   1     1.835120628167   144.17578007    27.16780690
 H      7   5   1     1.833289542576    92.47910424   152.71278453
 H     24   4   2     1.625396279695   118.62424079   225.01292844
 H      8   2   1     1.832706053645    92.77095655   247.05399219
 H      8   2   1     1.831285031474    83.77068698   354.30827971
 H      1   2   3     1.834255446567   168.28836437    95.06029044
 H      1   2   3     1.835068086590    83.99755490   275.45598749
 H     13  11   3     1.833675186233   108.57075808   289.83706674
 H     13  11   3     1.832319231553   108.58557297    46.41746632
 H     34   9   6     1.814476616957   109.40515441   316.73705589
 H     16  15   5     1.832268558630   109.00634120   174.90010115
 H     34   9   6     1.814241414195   109.46071096   196.87863540
 H     10   7   5     1.854352927227   107.67410901   117.10765424
 H     34   9   6     1.813325899738   109.53933013    76.76668781
 H     11   3   1     1.852329760736   109.47288102    33.92700145
 H     35  14  13     1.814037678372   109.48821034   315.63135359
 H     12   2   1     1.852202516451   109.42524815    71.78462030
 H     35  14  13     1.813732523954   109.50186875   195.62443372
 H     16  15   5     1.835432927607   108.99138502   292.18806285
 H     35  14  13     1.813634076092   109.46498239    75.59827380
 H     19  15   5     1.833101560580   109.09496527    65.45990716
 H     36  14  13     1.811695533558   109.51897458   301.63971800
 H     14  13  11     1.851021233668   108.96843338    57.65332403
 H     36  14  13     1.814145946634   109.45582825   181.51856243
 H     15   5   1     1.852026095139   107.67921489   210.74189492
 H     36  14  13     1.815456464387   109.38649360    61.64558758
 H     19  15   5     1.833377195985   109.08824581   182.95927041
 H     37   9   6     1.813335746437   109.52697433   276.13247015
 H     20  18   8     1.813196903031   109.45862781   300.71914624
 H     37   9   6     1.814567147132   109.46651238   156.19620634
 H     18   8   2     1.852045376975   108.70429816    63.23315234
 H     37   9   6     1.814491377619   109.46647831    36.21739475
 H     20  18   8     1.814968574360   109.44317649   180.78949163
 H     38  17   4     1.813299313381   109.41109601   279.45301861
 H     20  18   8     1.812178393011   109.50182062    60.78761049
 H     38  17   4     1.813217582510   109.45211046   159.43946452
 H     21   9   6     1.815018746520   109.44612330   297.75573382
 H     38  17   4     1.814393955026   109.47773840    39.41055779
 H     22  18   8     1.815013827742   109.44503740   297.53390795
 H     39  17   4     1.814354590878   109.48853316   290.78919198
 H     39  17   4     1.815027600287   109.45389561   170.83097433
 H     39  17   4     1.814437254602   109.52615812    50.81001004
 H     27  17   4     1.814835759003   109.49186968   308.83694709
 H     27  17   4     1.815476134622   109.49077037   188.93807053
 H     27  17   4     1.813197887774   109.53848422    68.85811165

---------------------
BASIS SET INFORMATION
---------------------
There are 4 groups of distinct atoms

 Group   1 Type C   : 10s4p1d contracted to 3s2p1d pattern {631/31/1}
 Group   2 Type N   : 10s4p1d contracted to 3s2p1d pattern {631/31/1}
 Group   3 Type O   : 10s4p1d contracted to 3s2p1d pattern {631/31/1}
 Group   4 Type H   : 4s contracted to 2s pattern {31}

Atom   0C    basis set group =>   1
Atom   1C    basis set group =>   1
Atom   2C    basis set group =>   1
Atom   3C    basis set group =>   1
Atom   4C    basis set group =>   1
Atom   5C    basis set group =>   1
Atom   6C    basis set group =>   1
Atom   7C    basis set group =>   1
Atom   8C    basis set group =>   1
Atom   9C    basis set group =>   1
Atom  10C    basis set group =>   1
Atom  11C    basis set group =>   1
Atom  12C    basis set group =>   1
Atom  13C    basis set group =>   1
Atom  14C    basis set group =>   1
Atom  15C    basis set group =>   1
Atom  16C    basis set group =>   1
Atom  17C    basis set group =>   1
Atom  18C    basis set group =>   1
Atom  19C    basis set group =>   1
Atom  20C    basis set group =>   1
Atom  21C    basis set group =>   1
Atom  22N    basis set group =>   2
Atom  23N    basis set group =>   2
Atom  24O    basis set group =>   3
Atom  25O    basis set group =>   3
Atom  26C    basis set group =>   1
Atom  27O    basis set group =>   3
Atom  28O    basis set group =>   3
Atom  29O    basis set group =>   3
Atom  30N    basis set group =>   2
Atom  31N    basis set group =>   2
Atom  32O    basis set group =>   3
Atom  33C    basis set group =>   1
Atom  34C    basis set group =>   1
Atom  35C    basis set group =>   1
Atom  36C    basis set group =>   1
Atom  37C    basis set group =>   1
Atom  38C    basis set group =>   1
Atom  39H    basis set group =>   4
Atom  40H    basis set group =>   4
Atom  41H    basis set group =>   4
Atom  42H    basis set group =>   4
Atom  43H    basis set group =>   4
Atom  44H    basis set group =>   4
Atom  45H    basis set group =>   4
Atom  46H    basis set group =>   4
Atom  47H    basis set group =>   4
Atom  48H    basis set group =>   4
Atom  49H    basis set group =>   4
Atom  50H    basis set group =>   4
Atom  51H    basis set group =>   4
Atom  52H    basis set group =>   4
Atom  53H    basis set group =>   4
Atom  54H    basis set group =>   4
Atom  55H    basis set group =>   4
Atom  56H    basis set group =>   4
Atom  57H    basis set group =>   4
Atom  58H    basis set group =>   4
Atom  59H    basis set group =>   4
Atom  60H    basis set group =>   4
Atom  61H    basis set group =>   4
Atom  62H    basis set group =>   4
Atom  63H    basis set group =>   4
Atom  64H    basis set group =>   4
Atom  65H    basis set group =>   4
Atom  66H    basis set group =>   4
Atom  67H    basis set group =>   4
Atom  68H    basis set group =>   4
Atom  69H    basis set group =>   4
Atom  70H    basis set group =>   4
Atom  71H    basis set group =>   4
Atom  72H    basis set group =>   4
Atom  73H    basis set group =>   4
Atom  74H    basis set group =>   4
Atom  75H    basis set group =>   4
Atom  76H    basis set group =>   4
Atom  77H    basis set group =>   4
Atom  78H    basis set group =>   4
Atom  79H    basis set group =>   4
Atom  80H    basis set group =>   4
Atom  81H    basis set group =>   4
Atom  82H    basis set group =>   4
Atom  83H    basis set group =>   4
Atom  84H    basis set group =>   4
Atom  85H    basis set group =>   4
Atom  86H    basis set group =>   4
Atom  87H    basis set group =>   4
Atom  88H    basis set group =>   4
Atom  89H    basis set group =>   4
Atom  90H    basis set group =>   4

Checking for AutoStart:
The File: biscrystal3rd.gbw exists
Trying to determine its content:
     ... Fine, the file contains calculation information
     ... Fine, the calculation information was read
     ... Fine, the file contains a basis set
     ... Fine, the basis set was read
     ... Fine, the file contains a geometry
     ... Fine, the geometry was read
     ... Fine, the file contains a set of orbitals
     ... Fine, the orbitals can be read
     => possible old guess file was deleted
     => GBW file was renamed to GES file
     => GES file is set as startup file
     => Guess is set to MORead
     ... now leaving AutoStart

------------------------------------------------------------------------------
                           ORCA GTO INTEGRAL CALCULATION
------------------------------------------------------------------------------

                         BASIS SET STATISTICS AND STARTUP INFO

 # of primitive gaussian shells          ...  793
 # of primitive gaussian functions       ... 1261
 # of contracted shells                  ...  338
 # of contracted basis functions         ...  650
 Highest angular momentum                ...    2
 Maximum contraction depth               ...    6
 Integral package used                   ... LIBINT
 Integral threshhold            Thresh   ...  1.000e-10
 Primitive cut-off              TCut     ...  1.000e-11


------------------------------ INTEGRAL EVALUATION ----------------------------


 * One electron integrals 
 Pre-screening matrix                    ... done
 Shell pair data                         ... done (   0.020 sec)

-------------------------------------------------------------------------------
                                 ORCA SCF
-------------------------------------------------------------------------------

------------
SCF SETTINGS
------------
Hamiltonian:
 Density Functional     Method          .... DFT(GTOs)
 Exchange Functional    Exchange        .... WB88
 Correlation Functional Correlation     .... LYP
 LDA part of GGA corr.  LDAOpt          .... VWN-5
 Gradients option       PostSCFGGA      .... off
 Hybrid DFT is turned on
   Fraction HF Exchange ScalHFX         ....  0.190000
   Scaling of DF-GGA-X  ScalDFX         ....  0.350000
   Scaling of DF-GGA-C  ScalDFC         ....  0.810000
   Scaling of DF-LDA-C  ScalLDAC        ....  1.000000
   Perturbative correction              ....  0.000000
   Density functional embedding theory  .... OFF
 Long-range corrected/Screened/Range-Separated Hybrid DFT is turned on
   Amount of maximum screened exact exchange              ....  0.460000
   Range separation parameter mu (erf(mu*r12)/r12)        ....  0.330000


General Settings:
 Integral files         IntName         .... biscrystal3rd
 Hartree-Fock type      HFTyp           .... RHF
 Total Charge           Charge          ....    0
 Multiplicity           Mult            ....    1
 Number of Electrons    NEL             ....  302
 Basis Dimension        Dim             ....  650
 Nuclear Repulsion      ENuc            ....   5073.8090560865 Eh

Convergence Acceleration:
 DIIS                   CNVDIIS         .... on
   Start iteration      DIISMaxIt       ....    12
   Startup error        DIISStart       ....  0.200000
   # of expansion vecs  DIISMaxEq       ....     5
   Bias factor          DIISBfac        ....   1.050
   Max. coefficient     DIISMaxC        ....  10.000
 Newton-Raphson         CNVNR           .... off
 SOSCF                  CNVSOSCF        .... on
   Start iteration      SOSCFMaxIt      ....   150
   Startup grad/error   SOSCFStart      ....  0.003300
 Level Shifting         CNVShift        .... on
   Level shift para.    LevelShift      ....    0.2500
   Turn off err/grad.   ShiftErr        ....    0.0010
 Zerner damping         CNVZerner       .... off
 Static damping         CNVDamp         .... on
   Fraction old density DampFac         ....    0.7000
   Max. Damping (<1)    DampMax         ....    0.9800
   Min. Damping (>=0)   DampMin         ....    0.0000
   Turn off err/grad.   DampErr         ....    0.1000
 Fernandez-Rico         CNVRico         .... off

SCF Procedure:
 Maximum # iterations   MaxIter         ....   125
 SCF integral mode      SCFMode         .... Direct
   Integral package                     .... LIBINT
 Reset frequency        DirectResetFreq ....    20
 Integral Threshold     Thresh          ....  1.000e-10 Eh
 Primitive CutOff       TCut            ....  1.000e-11 Eh

Convergence Tolerance:
 Convergence Check Mode ConvCheckMode   .... Total+1el-Energy
 Convergence forced     ConvForced      .... 0
 Energy Change          TolE            ....  1.000e-06 Eh
 1-El. energy change                    ....  1.000e-03 Eh
 Orbital Gradient       TolG            ....  5.000e-05
 Orbital Rotation angle TolX            ....  5.000e-05
 DIIS Error             TolErr          ....  1.000e-06


Diagonalization of the overlap matrix:
Smallest eigenvalue                        ... 1.799e-03
Time for diagonalization                   ...    0.117 sec
Threshold for overlap eigenvalues          ... 1.000e-08
Number of eigenvalues below threshold      ... 0
Time for construction of square roots      ...    0.063 sec
Total time needed                          ...    0.182 sec

---------------------
INITIAL GUESS: MOREAD
---------------------
Guess MOs are being read from file: biscrystal3rd.ges
Input Geometry matches current geometry (good)
Input basis set matches current basis set (good)
MOs were renormalized
MOs were reorthogonalized (Cholesky)
                      ------------------
                      INITIAL GUESS DONE (   0.2 sec)
                      ------------------
-------------------
DFT GRID GENERATION
-------------------

General Integration Accuracy     IntAcc      ...  4.340
Radial Grid Type                 RadialGrid  ... Gauss-Chebyshev
Angular Grid (max. acc.)         AngularGrid ... Lebedev-110
Angular grid pruning method      GridPruning ... 3 (G Style)
Weight generation scheme         WeightScheme... Becke
Basis function cutoff            BFCut       ...    1.0000e-10
Integration weight cutoff        WCut        ...    1.0000e-14
Grids for H and He will be reduced by one unit

# of grid points (after initial pruning)     ... 106416 (   0.2 sec)
# of grid points (after weights+screening)   ...  91370 (   3.8 sec)
nearest neighbour list constructed           ...    0.0 sec
Grid point re-assignment to atoms done       ...    0.1 sec
Grid point division into batches done        ...    0.1 sec
Reduced shell lists constructed in    3.3 sec

Total number of grid points                  ...    91370
Total number of batches                      ...     1479
Average number of points per batch           ...       61
Average number of grid points per atom       ...     1004
Average number of shells per batch           ...   101.80 (30.12%)
Average number of basis functions per batch  ...   192.24 (29.58%)
Average number of large shells per batch     ...    58.79 (57.75%)
Average number of large basis fcns per batch ...   113.72 (59.16%)
Maximum spatial batch extension              ...  20.37, 19.94, 20.44 au
Average spatial batch extension              ...   3.05,  2.99,  2.97 au

Time for grid setup =    7.273 sec

--------------
SCF ITERATIONS
--------------
ITER       Energy         Delta-E        Max-DP      RMS-DP      [F,P]     Damp
               ***  Starting incremental Fock matrix formation  ***
                      *** Initiating the SOSCF procedure ***
                      *** Re-Reading the Fockian *** 
                      *** Removing any level shift *** 
ITER      Energy       Delta-E        Grad      Rot      Max-DP    RMS-DP
  0  -1805.19459413 -1805.1945941326  0.000034  0.000034  0.000116  0.000001
               *** Restarting incremental Fock matrix formation ***
                 **** Energy Check signals convergence ****
              ***Rediagonalizing the Fockian in SOSCF/NRSCF***

               *****************************************************
               *                     SUCCESS                       *
               *           SCF CONVERGED AFTER   1 CYCLES          *
               *****************************************************

Setting up the final grid:

General Integration Accuracy     IntAcc      ...  4.670
Radial Grid Type                 RadialGrid  ... Gauss-Chebyshev
Angular Grid (max. acc.)         AngularGrid ... Lebedev-302
Angular grid pruning method      GridPruning ... 3 (G Style)
Weight generation scheme         WeightScheme... Becke
Basis function cutoff            BFCut       ...    1.0000e-10
Integration weight cutoff        WCut        ...    1.0000e-14
Grids for H and He will be reduced by one unit

# of grid points (after initial pruning)     ... 418756 (   0.7 sec)
# of grid points (after weights+screening)   ... 348909 (  14.5 sec)
nearest neighbour list constructed           ...    0.0 sec
Grid point re-assignment to atoms done       ...    0.1 sec
Grid point division into batches done        ...    1.2 sec
Reduced shell lists constructed in    9.5 sec

Total number of grid points                  ...   348909
Total number of batches                      ...     5500
Average number of points per batch           ...       63
Average number of grid points per atom       ...     3834
Average number of shells per batch           ...    90.67 (26.82%)
Average number of basis functions per batch  ...   170.72 (26.27%)
Average number of large shells per batch     ...    52.00 (57.35%)
Average number of large basis fcns per batch ...   100.08 (58.62%)
Maximum spatial batch extension              ...  23.40, 20.07, 20.70 au
Average spatial batch extension              ...   1.98,  1.97,  1.96 au

Final grid set up in   24.7 sec
Final integration                            ... done (  10.0 sec)
Change in XC energy                          ...     0.000204302
Integrated number of electrons               ...   301.999571454
Previous integrated no of electrons          ...   302.000322266

----------------
TOTAL SCF ENERGY
----------------

Total Energy       :        -1805.19438988 Eh          -49121.83665 eV

Components:
Nuclear Repulsion  :         5073.80905609 Eh          138065.36352 eV
Electronic Energy  :        -6879.00344597 Eh         -187187.20018 eV
One Electron Energy:       -12556.64168134 Eh         -341683.59101 eV
Two Electron Energy:         5677.63823537 Eh          154496.39083 eV

Virial components:
Potential Energy   :        -3611.65268089 Eh          -98278.06581 eV
Kinetic Energy     :         1806.45829100 Eh           49156.22915 eV
Virial Ratio       :            1.99930034


DFT components:
N(Alpha)           :      150.999785727099 electrons
N(Beta)            :      150.999785727099 electrons
N(Total)           :      301.999571454199 electrons
E(XC)              :     -187.774061629653 Eh       
DFET-embed. en.    :        0.000000000000 Eh       

---------------
SCF CONVERGENCE
---------------

  Last Energy change         ...   -5.4762e-08  Tolerance :   1.0000e-06
  Last MAX-Density change    ...    1.5178e-04  Tolerance :   1.0000e-05
  Last RMS-Density change    ...    1.3577e-06  Tolerance :   1.0000e-06
  Last Orbital Gradient      ...    2.4440e-05  Tolerance :   5.0000e-05
  Last Orbital Rotation      ...    4.5190e-05  Tolerance :   5.0000e-05

             **** THE GBW FILE WAS UPDATED (biscrystal3rd.gbw) ****
             **** DENSITY FILE WAS UPDATED (biscrystal3rd.scfp) ****
             **** ENERGY FILE WAS UPDATED (biscrystal3rd.en.tmp) ****
             **** THE GBW FILE WAS UPDATED (biscrystal3rd.gbw) ****
             **** DENSITY FILE WAS UPDATED (biscrystal3rd.scfp) ****
----------------
ORBITAL ENERGIES
----------------

  NO   OCC          E(Eh)            E(eV) 
   0   2.0000     -19.228262      -523.2276 
   1   2.0000     -19.225976      -523.1654 
   2   2.0000     -19.173024      -521.7245 
   3   2.0000     -19.171820      -521.6918 
   4   2.0000     -19.170725      -521.6620 
   5   2.0000     -19.167897      -521.5850 
   6   2.0000     -14.431424      -392.6990 
   7   2.0000     -14.422662      -392.4606 
   8   2.0000     -14.397959      -391.7884 
   9   2.0000     -14.394820      -391.7030 
  10   2.0000     -10.385611      -282.6068 
  11   2.0000     -10.385459      -282.6027 
  12   2.0000     -10.348023      -281.5840 
  13   2.0000     -10.345700      -281.5208 
  14   2.0000     -10.301807      -280.3264 
  15   2.0000     -10.300086      -280.2796 
  16   2.0000     -10.282868      -279.8111 
  17   2.0000     -10.280098      -279.7357 
  18   2.0000     -10.274712      -279.5891 
  19   2.0000     -10.269112      -279.4367 
  20   2.0000     -10.262525      -279.2575 
  21   2.0000     -10.259081      -279.1638 
  22   2.0000     -10.257273      -279.1146 
  23   2.0000     -10.257048      -279.1085 
  24   2.0000     -10.233975      -278.4806 
  25   2.0000     -10.230714      -278.3919 
  26   2.0000     -10.223053      -278.1834 
  27   2.0000     -10.219533      -278.0876 
  28   2.0000     -10.212581      -277.8984 
  29   2.0000     -10.190762      -277.3047 
  30   2.0000     -10.189356      -277.2665 
  31   2.0000     -10.185798      -277.1697 
  32   2.0000     -10.185632      -277.1651 
  33   2.0000     -10.185459      -277.1604 
  34   2.0000     -10.185275      -277.1554 
  35   2.0000     -10.183604      -277.1100 
  36   2.0000     -10.181957      -277.0651 
  37   2.0000     -10.179444      -276.9967 
  38   2.0000     -10.176353      -276.9126 
  39   2.0000      -1.169183       -31.8151 
  40   2.0000      -1.167350       -31.7652 
  41   2.0000      -1.113211       -30.2920 
  42   2.0000      -1.110742       -30.2248 
  43   2.0000      -1.075955       -29.2782 
  44   2.0000      -1.073110       -29.2008 
  45   2.0000      -1.035910       -28.1886 
  46   2.0000      -1.016680       -27.6653 
  47   2.0000      -1.014378       -27.6026 
  48   2.0000      -1.009738       -27.4764 
  49   2.0000      -0.923929       -25.1414 
  50   2.0000      -0.918369       -24.9901 
  51   2.0000      -0.912797       -24.8385 
  52   2.0000      -0.904051       -24.6005 
  53   2.0000      -0.900474       -24.5031 
  54   2.0000      -0.899912       -24.4879 
  55   2.0000      -0.847960       -23.0742 
  56   2.0000      -0.844568       -22.9819 
  57   2.0000      -0.822190       -22.3729 
  58   2.0000      -0.803824       -21.8732 
  59   2.0000      -0.801037       -21.7973 
  60   2.0000      -0.799825       -21.7643 
  61   2.0000      -0.799520       -21.7561 
  62   2.0000      -0.798342       -21.7240 
  63   2.0000      -0.791923       -21.5493 
  64   2.0000      -0.787775       -21.4364 
  65   2.0000      -0.783861       -21.3299 
  66   2.0000      -0.750086       -20.4109 
  67   2.0000      -0.747430       -20.3386 
  68   2.0000      -0.723181       -19.6788 
  69   2.0000      -0.709479       -19.3059 
  70   2.0000      -0.702621       -19.1193 
  71   2.0000      -0.676993       -18.4219 
  72   2.0000      -0.669248       -18.2112 
  73   2.0000      -0.665341       -18.1049 
  74   2.0000      -0.650098       -17.6901 
  75   2.0000      -0.648290       -17.6409 
  76   2.0000      -0.646717       -17.5981 
  77   2.0000      -0.628552       -17.1038 
  78   2.0000      -0.595291       -16.1987 
  79   2.0000      -0.590076       -16.0568 
  80   2.0000      -0.587054       -15.9745 
  81   2.0000      -0.581731       -15.8297 
  82   2.0000      -0.576049       -15.6751 
  83   2.0000      -0.570544       -15.5253 
  84   2.0000      -0.565175       -15.3792 
  85   2.0000      -0.556798       -15.1512 
  86   2.0000      -0.551872       -15.0172 
  87   2.0000      -0.551105       -14.9963 
  88   2.0000      -0.548860       -14.9353 
  89   2.0000      -0.544422       -14.8145 
  90   2.0000      -0.541669       -14.7396 
  91   2.0000      -0.541044       -14.7225 
  92   2.0000      -0.535374       -14.5683 
  93   2.0000      -0.533696       -14.5226 
  94   2.0000      -0.530107       -14.4249 
  95   2.0000      -0.524201       -14.2642 
  96   2.0000      -0.520741       -14.1701 
  97   2.0000      -0.518317       -14.1041 
  98   2.0000      -0.515639       -14.0313 
  99   2.0000      -0.514546       -14.0015 
 100   2.0000      -0.510182       -13.8828 
 101   2.0000      -0.508399       -13.8343 
 102   2.0000      -0.503389       -13.6979 
 103   2.0000      -0.497255       -13.5310 
 104   2.0000      -0.494599       -13.4587 
 105   2.0000      -0.486702       -13.2438 
 106   2.0000      -0.483430       -13.1548 
 107   2.0000      -0.481444       -13.1007 
 108   2.0000      -0.479227       -13.0404 
 109   2.0000      -0.478176       -13.0118 
 110   2.0000      -0.476850       -12.9758 
 111   2.0000      -0.474456       -12.9106 
 112   2.0000      -0.470848       -12.8124 
 113   2.0000      -0.468373       -12.7451 
 114   2.0000      -0.467333       -12.7168 
 115   2.0000      -0.461042       -12.5456 
 116   2.0000      -0.460388       -12.5278 
 117   2.0000      -0.458053       -12.4643 
 118   2.0000      -0.452940       -12.3251 
 119   2.0000      -0.451714       -12.2918 
 120   2.0000      -0.450694       -12.2640 
 121   2.0000      -0.448520       -12.2049 
 122   2.0000      -0.446299       -12.1444 
 123   2.0000      -0.436954       -11.8901 
 124   2.0000      -0.430901       -11.7254 
 125   2.0000      -0.426874       -11.6158 
 126   2.0000      -0.416372       -11.3301 
 127   2.0000      -0.413438       -11.2502 
 128   2.0000      -0.413117       -11.2415 
 129   2.0000      -0.410744       -11.1769 
 130   2.0000      -0.409345       -11.1388 
 131   2.0000      -0.402560       -10.9542 
 132   2.0000      -0.398502       -10.8438 
 133   2.0000      -0.392824       -10.6893 
 134   2.0000      -0.390065       -10.6142 
 135   2.0000      -0.386535       -10.5182 
 136   2.0000      -0.385348       -10.4859 
 137   2.0000      -0.382452       -10.4070 
 138   2.0000      -0.381216       -10.3734 
 139   2.0000      -0.378406       -10.2970 
 140   2.0000      -0.373243       -10.1565 
 141   2.0000      -0.339942        -9.2503 
 142   2.0000      -0.337737        -9.1903 
 143   2.0000      -0.321871        -8.7585 
 144   2.0000      -0.320108        -8.7106 
 145   2.0000      -0.317549        -8.6409 
 146   2.0000      -0.315272        -8.5790 
 147   2.0000      -0.307797        -8.3756 
 148   2.0000      -0.300647        -8.1810 
 149   2.0000      -0.298130        -8.1125 
 150   2.0000      -0.280155        -7.6234 
 151   0.0000       0.079816         2.1719 
 152   0.0000       0.092510         2.5173 
 153   0.0000       0.116925         3.1817 
 154   0.0000       0.130822         3.5599 
 155   0.0000       0.133011         3.6194 
 156   0.0000       0.141028         3.8376 
 157   0.0000       0.149095         4.0571 
 158   0.0000       0.160147         4.3578 
 159   0.0000       0.161333         4.3901 
 160   0.0000       0.164781         4.4839 
 161   0.0000       0.175673         4.7803 
 162   0.0000       0.180610         4.9146 
 163   0.0000       0.182091         4.9550 
 164   0.0000       0.184720         5.0265 
 165   0.0000       0.186058         5.0629 
 166   0.0000       0.187801         5.1103 
 167   0.0000       0.192485         5.2378 
 168   0.0000       0.194353         5.2886 
 169   0.0000       0.203742         5.5441 
 170   0.0000       0.204815         5.5733 
 171   0.0000       0.208948         5.6858 
 172   0.0000       0.212144         5.7727 
 173   0.0000       0.218443         5.9441 
 174   0.0000       0.223390         6.0787 
 175   0.0000       0.225338         6.1318 
 176   0.0000       0.230632         6.2758 
 177   0.0000       0.233061         6.3419 
 178   0.0000       0.233551         6.3552 
 179   0.0000       0.239352         6.5131 
 180   0.0000       0.239865         6.5271 
 181   0.0000       0.240734         6.5507 
 182   0.0000       0.245743         6.6870 
 183   0.0000       0.246294         6.7020 
 184   0.0000       0.247973         6.7477 
 185   0.0000       0.248847         6.7715 
 186   0.0000       0.250129         6.8064 
 187   0.0000       0.252005         6.8574 
 188   0.0000       0.256897         6.9905 
 189   0.0000       0.257358         7.0031 
 190   0.0000       0.260511         7.0889 
 191   0.0000       0.261508         7.1160 
 192   0.0000       0.264212         7.1896 
 193   0.0000       0.265264         7.2182 
 194   0.0000       0.268023         7.2933 
 195   0.0000       0.270668         7.3653 
 196   0.0000       0.272817         7.4237 
 197   0.0000       0.275184         7.4881 
 198   0.0000       0.278198         7.5701 
 199   0.0000       0.279645         7.6095 
 200   0.0000       0.282414         7.6849 
 201   0.0000       0.283811         7.7229 
 202   0.0000       0.284749         7.7484 
 203   0.0000       0.286973         7.8089 
 204   0.0000       0.289017         7.8646 
 205   0.0000       0.292589         7.9617 
 206   0.0000       0.295296         8.0354 
 207   0.0000       0.296184         8.0596 
 208   0.0000       0.300506         8.1772 
 209   0.0000       0.302088         8.2202 
 210   0.0000       0.305497         8.3130 
 211   0.0000       0.307052         8.3553 
 212   0.0000       0.307943         8.3795 
 213   0.0000       0.312593         8.5061 
 214   0.0000       0.313695         8.5361 
 215   0.0000       0.314718         8.5639 
 216   0.0000       0.316578         8.6145 
 217   0.0000       0.318806         8.6752 
 218   0.0000       0.321936         8.7603 
 219   0.0000       0.326702         8.8900 
 220   0.0000       0.328712         8.9447 
 221   0.0000       0.330235         8.9862 
 222   0.0000       0.335755         9.1364 
 223   0.0000       0.336497         9.1566 
 224   0.0000       0.338528         9.2118 
 225   0.0000       0.339018         9.2251 
 226   0.0000       0.345454         9.4003 
 227   0.0000       0.347845         9.4654 
 228   0.0000       0.350571         9.5395 
 229   0.0000       0.353207         9.6113 
 230   0.0000       0.357003         9.7146 
 231   0.0000       0.358444         9.7538 
 232   0.0000       0.365881         9.9561 
 233   0.0000       0.368006        10.0139 
 234   0.0000       0.371444        10.1075 
 235   0.0000       0.375661        10.2223 
 236   0.0000       0.379492        10.3265 
 237   0.0000       0.386767        10.5245 
 238   0.0000       0.394155        10.7255 
 239   0.0000       0.433406        11.7936 
 240   0.0000       0.452207        12.3052 
 241   0.0000       0.455090        12.3836 
 242   0.0000       0.459046        12.4913 
 243   0.0000       0.474555        12.9133 
 244   0.0000       0.484203        13.1758 
 245   0.0000       0.500085        13.6080 
 246   0.0000       0.506882        13.7929 
 247   0.0000       0.534153        14.5350 
 248   0.0000       0.536572        14.6009 
 249   0.0000       0.538961        14.6659 
 250   0.0000       0.544689        14.8217 
 251   0.0000       0.547041        14.8857 
 252   0.0000       0.553669        15.0661 
 253   0.0000       0.556276        15.1370 
 254   0.0000       0.565825        15.3969 
 255   0.0000       0.567952        15.4548 
 256   0.0000       0.569979        15.5099 
 257   0.0000       0.571930        15.5630 
 258   0.0000       0.573569        15.6076 
 259   0.0000       0.576542        15.6885 
 260   0.0000       0.581630        15.8270 
 261   0.0000       0.587249        15.9799 
 262   0.0000       0.593950        16.1622 
 263   0.0000       0.594883        16.1876 
 264   0.0000       0.603967        16.4348 
 265   0.0000       0.608010        16.5448 
 266   0.0000       0.612569        16.6688 
 267   0.0000       0.616664        16.7803 
 268   0.0000       0.624047        16.9812 
 269   0.0000       0.627605        17.0780 
 270   0.0000       0.631216        17.1763 
 271   0.0000       0.634632        17.2692 
 272   0.0000       0.638867        17.3844 
 273   0.0000       0.645976        17.5779 
 274   0.0000       0.648686        17.6516 
 275   0.0000       0.663722        18.0608 
 276   0.0000       0.668371        18.1873 
 277   0.0000       0.674070        18.3424 
 278   0.0000       0.675926        18.3929 
 279   0.0000       0.681407        18.5420 
 280   0.0000       0.682878        18.5821 
 281   0.0000       0.684885        18.6367 
 282   0.0000       0.693840        18.8803 
 283   0.0000       0.703970        19.1560 
 284   0.0000       0.706767        19.2321 
 285   0.0000       0.714484        19.4421 
 286   0.0000       0.714932        19.4543 
 287   0.0000       0.720834        19.6149 
 288   0.0000       0.726123        19.7588 
 289   0.0000       0.731192        19.8967 
 290   0.0000       0.736511        20.0415 
 291   0.0000       0.740410        20.1476 
 292   0.0000       0.746710        20.3190 
 293   0.0000       0.750175        20.4133 
 294   0.0000       0.753954        20.5161 
 295   0.0000       0.757951        20.6249 
 296   0.0000       0.761426        20.7195 
 297   0.0000       0.767773        20.8922 
 298   0.0000       0.771137        20.9837 
 299   0.0000       0.774940        21.0872 
 300   0.0000       0.780820        21.2472 
 301   0.0000       0.784287        21.3415 
 302   0.0000       0.785571        21.3765 
 303   0.0000       0.795532        21.6475 
 304   0.0000       0.801257        21.8033 
 305   0.0000       0.807818        21.9818 
 306   0.0000       0.812513        22.1096 
 307   0.0000       0.820718        22.3329 
 308   0.0000       0.823862        22.4184 
 309   0.0000       0.830521        22.5996 
 310   0.0000       0.831367        22.6226 
 311   0.0000       0.833452        22.6794 
 312   0.0000       0.839572        22.8459 
 313   0.0000       0.845644        23.0111 
 314   0.0000       0.847402        23.0590 
 315   0.0000       0.849754        23.1230 
 316   0.0000       0.851529        23.1713 
 317   0.0000       0.858413        23.3586 
 318   0.0000       0.865091        23.5403 
 319   0.0000       0.867654        23.6101 
 320   0.0000       0.873537        23.7701 
 321   0.0000       0.883047        24.0289 
 322   0.0000       0.888000        24.1637 
 323   0.0000       0.895992        24.3812 
 324   0.0000       0.902079        24.5468 
 325   0.0000       0.911989        24.8165 
 326   0.0000       0.921127        25.0651 
 327   0.0000       0.922620        25.1058 
 328   0.0000       0.941866        25.6295 
 329   0.0000       0.943397        25.6711 
 330   0.0000       0.948300        25.8046 
 331   0.0000       0.955573        26.0025 
 332   0.0000       0.957869        26.0649 
 333   0.0000       0.967526        26.3277 
 334   0.0000       0.975210        26.5368 
 335   0.0000       0.982411        26.7328 
 336   0.0000       0.985410        26.8144 
 337   0.0000       0.991588        26.9825 
 338   0.0000       1.007271        27.4092 
 339   0.0000       1.008357        27.4388 
 340   0.0000       1.012472        27.5508 
 341   0.0000       1.021896        27.8072 
 342   0.0000       1.031784        28.0763 
 343   0.0000       1.036303        28.1992 
 344   0.0000       1.043143        28.3854 
 345   0.0000       1.044794        28.4303 
 346   0.0000       1.052680        28.6449 
 347   0.0000       1.055007        28.7082 
 348   0.0000       1.062075        28.9005 
 349   0.0000       1.063498        28.9393 
 350   0.0000       1.066273        29.0148 
 351   0.0000       1.070898        29.1406 
 352   0.0000       1.072291        29.1785 
 353   0.0000       1.078757        29.3545 
 354   0.0000       1.082694        29.4616 
 355   0.0000       1.085145        29.5283 
 356   0.0000       1.085870        29.5480 
 357   0.0000       1.087548        29.5937 
 358   0.0000       1.089877        29.6571 
 359   0.0000       1.093031        29.7429 
 360   0.0000       1.093139        29.7458 
 361   0.0000       1.095664        29.8145 
 362   0.0000       1.098013        29.8785 
 363   0.0000       1.100942        29.9582 
 364   0.0000       1.101786        29.9811 
 365   0.0000       1.106119        30.0990 
 366   0.0000       1.106885        30.1199 
 367   0.0000       1.112835        30.2818 
 368   0.0000       1.114618        30.3303 
 369   0.0000       1.119217        30.4554 
 370   0.0000       1.119600        30.4659 
 371   0.0000       1.124661        30.6036 
 372   0.0000       1.125727        30.6326 
 373   0.0000       1.130874        30.7726 
 374   0.0000       1.136645        30.9297 
 375   0.0000       1.138199        30.9720 
 376   0.0000       1.140400        31.0319 
 377   0.0000       1.144861        31.1533 
 378   0.0000       1.149929        31.2912 
 379   0.0000       1.151838        31.3431 
 380   0.0000       1.155438        31.4411 
 381   0.0000       1.159568        31.5535 
 382   0.0000       1.161806        31.6143 
 383   0.0000       1.173966        31.9453 
 384   0.0000       1.179034        32.0831 
 385   0.0000       1.183850        32.2142 
 386   0.0000       1.187563        32.3152 
 387   0.0000       1.188286        32.3349 
 388   0.0000       1.192459        32.4485 
 389   0.0000       1.197626        32.5891 
 390   0.0000       1.199987        32.6533 
 391   0.0000       1.203129        32.7388 
 392   0.0000       1.209606        32.9150 
 393   0.0000       1.210375        32.9360 
 394   0.0000       1.217126        33.1197 
 395   0.0000       1.217682        33.1348 
 396   0.0000       1.223896        33.3039 
 397   0.0000       1.230642        33.4875 
 398   0.0000       1.232759        33.5451 
 399   0.0000       1.240553        33.7572 
 400   0.0000       1.245193        33.8834 
 401   0.0000       1.251180        34.0463 
 402   0.0000       1.255399        34.1611 
 403   0.0000       1.260082        34.2886 
 404   0.0000       1.263801        34.3898 
 405   0.0000       1.266375        34.4598 
 406   0.0000       1.277234        34.7553 
 407   0.0000       1.284016        34.9399 
 408   0.0000       1.286513        35.0078 
 409   0.0000       1.295338        35.2479 
 410   0.0000       1.299060        35.3492 
 411   0.0000       1.312248        35.7081 
 412   0.0000       1.317744        35.8576 
 413   0.0000       1.324058        36.0295 
 414   0.0000       1.330860        36.2145 
 415   0.0000       1.334732        36.3199 
 416   0.0000       1.347051        36.6551 
 417   0.0000       1.356599        36.9149 
 418   0.0000       1.364013        37.1167 
 419   0.0000       1.383284        37.6411 
 420   0.0000       1.389477        37.8096 
 421   0.0000       1.396252        37.9940 
 422   0.0000       1.406860        38.2826 
 423   0.0000       1.416194        38.5366 
 424   0.0000       1.419316        38.6216 
 425   0.0000       1.423143        38.7257 
 426   0.0000       1.434717        39.0406 
 427   0.0000       1.452929        39.5362 
 428   0.0000       1.453570        39.5537 
 429   0.0000       1.457434        39.6588 
 430   0.0000       1.475067        40.1386 
 431   0.0000       1.484077        40.3838 
 432   0.0000       1.496444        40.7203 
 433   0.0000       1.504608        40.9425 
 434   0.0000       1.521728        41.4083 
 435   0.0000       1.535878        41.7934 
 436   0.0000       1.540107        41.9084 
 437   0.0000       1.547742        42.1162 
 438   0.0000       1.551899        42.2293 
 439   0.0000       1.557332        42.3772 
 440   0.0000       1.564331        42.5676 
 441   0.0000       1.571347        42.7585 
 442   0.0000       1.576735        42.9051 
 443   0.0000       1.591484        43.3065 
 444   0.0000       1.600061        43.5399 
 445   0.0000       1.602282        43.6003 
 446   0.0000       1.607617        43.7455 
 447   0.0000       1.614181        43.9241 
 448   0.0000       1.625623        44.2355 
 449   0.0000       1.632587        44.4250 
 450   0.0000       1.641466        44.6665 
 451   0.0000       1.648270        44.8517 
 452   0.0000       1.661007        45.1983 
 453   0.0000       1.665555        45.3220 
 454   0.0000       1.681537        45.7569 
 455   0.0000       1.690950        46.0131 
 456   0.0000       1.710293        46.5394 
 457   0.0000       1.719783        46.7977 
 458   0.0000       1.726363        46.9767 
 459   0.0000       1.731625        47.1199 
 460   0.0000       1.749039        47.5938 
 461   0.0000       1.753069        47.7034 
 462   0.0000       1.768427        48.1213 
 463   0.0000       1.775211        48.3059 
 464   0.0000       1.797175        48.9036 
 465   0.0000       1.798990        48.9530 
 466   0.0000       1.804086        49.0917 
 467   0.0000       1.810398        49.2634 
 468   0.0000       1.812074        49.3090 
 469   0.0000       1.821457        49.5644 
 470   0.0000       1.827561        49.7305 
 471   0.0000       1.836510        49.9740 
 472   0.0000       1.838306        50.0228 
 473   0.0000       1.847907        50.2841 
 474   0.0000       1.852486        50.4087 
 475   0.0000       1.862092        50.6701 
 476   0.0000       1.871823        50.9349 
 477   0.0000       1.880159        51.1617 
 478   0.0000       1.882595        51.2280 
 479   0.0000       1.886572        51.3362 
 480   0.0000       1.891822        51.4791 
 481   0.0000       1.896289        51.6006 
 482   0.0000       1.900334        51.7107 
 483   0.0000       1.905533        51.8522 
 484   0.0000       1.909763        51.9673 
 485   0.0000       1.913973        52.0819 
 486   0.0000       1.917472        52.1771 
 487   0.0000       1.920359        52.2556 
 488   0.0000       1.925618        52.3987 
 489   0.0000       1.928343        52.4729 
 490   0.0000       1.932402        52.5833 
 491   0.0000       1.937753        52.7289 
 492   0.0000       1.946533        52.9679 
 493   0.0000       1.949499        53.0486 
 494   0.0000       1.952989        53.1435 
 495   0.0000       1.956721        53.2451 
 496   0.0000       1.960738        53.3544 
 497   0.0000       1.970287        53.6142 
 498   0.0000       1.976682        53.7883 
 499   0.0000       1.980611        53.8952 
 500   0.0000       2.002596        54.4934 
 501   0.0000       2.005430        54.5705 
 502   0.0000       2.007672        54.6315 
 503   0.0000       2.012761        54.7700 
 504   0.0000       2.016034        54.8591 
 505   0.0000       2.025540        55.1178 
 506   0.0000       2.031443        55.2784 
 507   0.0000       2.035345        55.3845 
 508   0.0000       2.045990        55.6742 
 509   0.0000       2.059788        56.0497 
 510   0.0000       2.062657        56.1277 
 511   0.0000       2.065552        56.2065 
 512   0.0000       2.075828        56.4862 
 513   0.0000       2.081281        56.6345 
 514   0.0000       2.085814        56.7579 
 515   0.0000       2.090505        56.8855 
 516   0.0000       2.095877        57.0317 
 517   0.0000       2.104295        57.2608 
 518   0.0000       2.116235        57.5857 
 519   0.0000       2.117315        57.6151 
 520   0.0000       2.131491        58.0008 
 521   0.0000       2.134184        58.0741 
 522   0.0000       2.143970        58.3404 
 523   0.0000       2.146564        58.4110 
 524   0.0000       2.154215        58.6192 
 525   0.0000       2.158246        58.7289 
 526   0.0000       2.166204        58.9454 
 527   0.0000       2.170502        59.0624 
 528   0.0000       2.179938        59.3191 
 529   0.0000       2.188311        59.5470 
 530   0.0000       2.192206        59.6530 
 531   0.0000       2.200982        59.8918 
 532   0.0000       2.206318        60.0370 
 533   0.0000       2.216904        60.3250 
 534   0.0000       2.220483        60.4224 
 535   0.0000       2.231175        60.7134 
 536   0.0000       2.232520        60.7500 
 537   0.0000       2.239490        60.9396 
 538   0.0000       2.256368        61.3989 
 539   0.0000       2.257751        61.4365 
 540   0.0000       2.260556        61.5129 
 541   0.0000       2.265034        61.6347 
 542   0.0000       2.269863        61.7661 
 543   0.0000       2.278324        61.9963 
 544   0.0000       2.288700        62.2787 
 545   0.0000       2.301753        62.6339 
 546   0.0000       2.305333        62.7313 
 547   0.0000       2.309842        62.8540 
 548   0.0000       2.315880        63.0183 
 549   0.0000       2.317489        63.0621 
 550   0.0000       2.329431        63.3870 
 551   0.0000       2.332531        63.4714 
 552   0.0000       2.340249        63.6814 
 553   0.0000       2.343184        63.7613 
 554   0.0000       2.360236        64.2253 
 555   0.0000       2.369033        64.4647 
 556   0.0000       2.369884        64.4878 
 557   0.0000       2.375077        64.6291 
 558   0.0000       2.384822        64.8943 
 559   0.0000       2.396950        65.2243 
 560   0.0000       2.400638        65.3247 
 561   0.0000       2.414124        65.6916 
 562   0.0000       2.430164        66.1281 
 563   0.0000       2.436428        66.2986 
 564   0.0000       2.445177        66.5366 
 565   0.0000       2.458940        66.9112 
 566   0.0000       2.492848        67.8338 
 567   0.0000       2.509121        68.2766 
 568   0.0000       2.515607        68.4532 
 569   0.0000       2.521268        68.6072 
 570   0.0000       2.523436        68.6662 
 571   0.0000       2.528863        68.8139 
 572   0.0000       2.536300        69.0162 
 573   0.0000       2.542600        69.1877 
 574   0.0000       2.544112        69.2288 
 575   0.0000       2.552773        69.4645 
 576   0.0000       2.556605        69.5688 
 577   0.0000       2.559867        69.6575 
 578   0.0000       2.561615        69.7051 
 579   0.0000       2.565944        69.8229 
 580   0.0000       2.567998        69.8788 
 581   0.0000       2.572161        69.9921 
 582   0.0000       2.579638        70.1955 
 583   0.0000       2.585887        70.3656 
 584   0.0000       2.591424        70.5162 
 585   0.0000       2.594887        70.6105 
 586   0.0000       2.600587        70.7656 
 587   0.0000       2.605013        70.8860 
 588   0.0000       2.619023        71.2673 
 589   0.0000       2.620728        71.3136 
 590   0.0000       2.624780        71.4239 
 591   0.0000       2.633573        71.6632 
 592   0.0000       2.647262        72.0357 
 593   0.0000       2.656990        72.3004 
 594   0.0000       2.661108        72.4124 
 595   0.0000       2.674654        72.7810 
 596   0.0000       2.685102        73.0654 
 597   0.0000       2.696067        73.3637 
 598   0.0000       2.701881        73.5219 
 599   0.0000       2.708187        73.6935 
 600   0.0000       2.716528        73.9205 
 601   0.0000       2.718863        73.9840 
 602   0.0000       2.722508        74.0832 
 603   0.0000       2.740815        74.5814 
 604   0.0000       2.742318        74.6223 
 605   0.0000       2.748466        74.7895 
 606   0.0000       2.755488        74.9806 
 607   0.0000       2.772663        75.4480 
 608   0.0000       2.777874        75.5898 
 609   0.0000       2.784494        75.7699 
 610   0.0000       2.788175        75.8701 
 611   0.0000       2.800446        76.2040 
 612   0.0000       2.809759        76.4574 
 613   0.0000       2.813178        76.5505 
 614   0.0000       2.824331        76.8540 
 615   0.0000       2.825466        76.8848 
 616   0.0000       2.828355        76.9635 
 617   0.0000       2.832256        77.0696 
 618   0.0000       2.836380        77.1818 
 619   0.0000       2.841883        77.3316 
 620   0.0000       2.845758        77.4370 
 621   0.0000       2.849811        77.5473 
 622   0.0000       2.861476        77.8647 
 623   0.0000       2.863988        77.9331 
 624   0.0000       2.869291        78.0774 
 625   0.0000       2.881911        78.4208 
 626   0.0000       2.895655        78.7948 
 627   0.0000       2.898978        78.8852 
 628   0.0000       2.905025        79.0497 
 629   0.0000       2.911220        79.2183 
 630   0.0000       2.925499        79.6069 
 631   0.0000       2.932412        79.7950 
 632   0.0000       2.939465        79.9869 
 633   0.0000       2.961811        80.5950 
 634   0.0000       2.983008        81.1718 
 635   0.0000       2.986060        81.2548 
 636   0.0000       3.005947        81.7960 
 637   0.0000       3.014923        82.0402 
 638   0.0000       3.091156        84.1146 
[...]
      py      :     1.658488
      dz2     :     0.015856  d :     0.061853
      dxz     :     0.013798
      dyz     :     0.009796
      dx2y2   :     0.011100
      dxy     :     0.011303
 26 C s       :     2.903188  s :     2.903188
      pz      :     1.167440  p :     3.427269
      px      :     1.152957
      py      :     1.106871
      dz2     :     0.014834  d :     0.074664
      dxz     :     0.003753
      dyz     :     0.023500
      dx2y2   :     0.017510
      dxy     :     0.015066
 27 O s       :     3.459369  s :     3.459369
      pz      :     1.699377  p :     4.654231
      px      :     1.671120
      py      :     1.283733
      dz2     :     0.009169  d :     0.061035
      dxz     :     0.005003
      dyz     :     0.012295
      dx2y2   :     0.014870
      dxy     :     0.019698
 28 O s       :     3.544047  s :     3.544047
      pz      :     1.467102  p :     4.673106
      px      :     1.682943
      py      :     1.523062
      dz2     :     0.009284  d :     0.055871
      dxz     :     0.006172
      dyz     :     0.018584
      dx2y2   :     0.010863
      dxy     :     0.010969
 29 O s       :     3.554575  s :     3.554575
      pz      :     1.703389  p :     4.700817
      px      :     1.493439
      py      :     1.503989
      dz2     :     0.006906  d :     0.053703
      dxz     :     0.013817
      dyz     :     0.002806
      dx2y2   :     0.015261
      dxy     :     0.014913
 30 N s       :     3.070403  s :     3.070403
      pz      :     1.231426  p :     3.897959
      px      :     1.163129
      py      :     1.503403
      dz2     :     0.021338  d :     0.096042
      dxz     :     0.030194
      dyz     :     0.012762
      dx2y2   :     0.017268
      dxy     :     0.014479
 31 N s       :     3.066332  s :     3.066332
      pz      :     1.477158  p :     4.047139
      px      :     1.361303
      py      :     1.208678
      dz2     :     0.007773  d :     0.077659
      dxz     :     0.013103
      dyz     :     0.018472
      dx2y2   :     0.018701
      dxy     :     0.019609
 32 O s       :     3.538018  s :     3.538018
      pz      :     1.627919  p :     4.702222
      px      :     1.506782
      py      :     1.567521
      dz2     :     0.007529  d :     0.055631
      dxz     :     0.019037
      dyz     :     0.003318
      dx2y2   :     0.015097
      dxy     :     0.010651
 33 C s       :     2.899443  s :     2.899443
      pz      :     1.160047  p :     3.431179
      px      :     1.095745
      py      :     1.175386
      dz2     :     0.023825  d :     0.075871
      dxz     :     0.009609
      dyz     :     0.008385
      dx2y2   :     0.013535
      dxy     :     0.020518
 34 C s       :     2.901137  s :     2.901137
      pz      :     1.132388  p :     3.421757
      px      :     1.129026
      py      :     1.160343
      dz2     :     0.017133  d :     0.075699
      dxz     :     0.013349
      dyz     :     0.014703
      dx2y2   :     0.022811
      dxy     :     0.007704
 35 C s       :     2.893711  s :     2.893711
      pz      :     1.122450  p :     3.430185
      px      :     1.166649
      py      :     1.141086
      dz2     :     0.010418  d :     0.079342
      dxz     :     0.022989
      dyz     :     0.017583
      dx2y2   :     0.013122
      dxy     :     0.015231
 36 C s       :     2.904362  s :     2.904362
      pz      :     1.075556  p :     3.428211
      px      :     1.172838
      py      :     1.179817
      dz2     :     0.018713  d :     0.074297
      dxz     :     0.012269
      dyz     :     0.014957
      dx2y2   :     0.014741
      dxy     :     0.013617
 37 C s       :     2.897553  s :     2.897553
      pz      :     1.165129  p :     3.419979
      px      :     1.088619
      py      :     1.166230
      dz2     :     0.018370  d :     0.078475
      dxz     :     0.010932
      dyz     :     0.013168
      dx2y2   :     0.018052
      dxy     :     0.017954
 38 C s       :     2.905624  s :     2.905624
      pz      :     1.124123  p :     3.425029
      px      :     1.184165
      py      :     1.116741
      dz2     :     0.019144  d :     0.074307
      dxz     :     0.007633
      dyz     :     0.016048
      dx2y2   :     0.015382
      dxy     :     0.016100
 39 H s       :     0.859730  s :     0.859730
 40 H s       :     0.858054  s :     0.858054
 41 H s       :     0.864956  s :     0.864956
 42 H s       :     0.854065  s :     0.854065
 43 H s       :     0.763600  s :     0.763600
 44 H s       :     0.865813  s :     0.865813
 45 H s       :     0.863459  s :     0.863459
 46 H s       :     0.854767  s :     0.854767
 47 H s       :     0.862141  s :     0.862141
 48 H s       :     0.760882  s :     0.760882
 49 H s       :     0.863341  s :     0.863341
 50 H s       :     0.860452  s :     0.860452
 51 H s       :     0.862839  s :     0.862839
 52 H s       :     0.851585  s :     0.851585
 53 H s       :     0.860588  s :     0.860588
 54 H s       :     0.854438  s :     0.854438
 55 H s       :     0.846385  s :     0.846385
 56 H s       :     0.858424  s :     0.858424
 57 H s       :     0.858120  s :     0.858120
 58 H s       :     0.857944  s :     0.857944
 59 H s       :     0.854544  s :     0.854544
 60 H s       :     0.858959  s :     0.858959
 61 H s       :     0.864732  s :     0.864732
 62 H s       :     0.851475  s :     0.851475
 63 H s       :     0.863069  s :     0.863069
 64 H s       :     0.862847  s :     0.862847
 65 H s       :     0.855299  s :     0.855299
 66 H s       :     0.863758  s :     0.863758
 67 H s       :     0.863679  s :     0.863679
 68 H s       :     0.876008  s :     0.876008
 69 H s       :     0.859174  s :     0.859174
 70 H s       :     0.858354  s :     0.858354
 71 H s       :     0.864979  s :     0.864979
 72 H s       :     0.848261  s :     0.848261
 73 H s       :     0.860548  s :     0.860548
 74 H s       :     0.867238  s :     0.867238
 75 H s       :     0.859924  s :     0.859924
 76 H s       :     0.871118  s :     0.871118
 77 H s       :     0.848075  s :     0.848075
 78 H s       :     0.859925  s :     0.859925
 79 H s       :     0.859306  s :     0.859306
 80 H s       :     0.860548  s :     0.860548
 81 H s       :     0.858220  s :     0.858220
 82 H s       :     0.857783  s :     0.857783
 83 H s       :     0.853702  s :     0.853702
 84 H s       :     0.865962  s :     0.865962
 85 H s       :     0.856844  s :     0.856844
 86 H s       :     0.861724  s :     0.861724
 87 H s       :     0.851313  s :     0.851313
 88 H s       :     0.849336  s :     0.849336
 89 H s       :     0.859208  s :     0.859208
 90 H s       :     0.854977  s :     0.854977


                      *****************************
                      * MAYER POPULATION ANALYSIS *
                      *****************************

  NA   - Mulliken gross atomic population
  ZA   - Total nuclear charge
  QA   - Mulliken gross atomic charge
  VA   - Mayer's total valence
  BVA  - Mayer's bonded valence
  FA   - Mayer's free valence

  ATOM       NA         ZA         QA         VA         BVA        FA
  0 C      6.1118     6.0000    -0.1118     3.8727     3.8727     0.0000
  1 C      5.4734     6.0000     0.5266     3.9349     3.9349    -0.0000
  2 C      5.4657     6.0000     0.5343     3.9215     3.9215     0.0000
  3 C      5.3160     6.0000     0.6840     4.0956     4.0956     0.0000
  4 C      6.2721     6.0000    -0.2721     3.9076     3.9076    -0.0000
  5 C      5.2846     6.0000     0.7154     4.0787     4.0787     0.0000
  6 C      6.1290     6.0000    -0.1290     3.8780     3.8780     0.0000
  7 C      6.2671     6.0000    -0.2671     3.8734     3.8734    -0.0000
  8 C      5.7795     6.0000     0.2205     3.9758     3.9758    -0.0000
  9 C      6.1584     6.0000    -0.1584     3.9640     3.9640     0.0000
 10 C      6.0487     6.0000    -0.0487     3.8469     3.8469     0.0000
 11 C      6.0787     6.0000    -0.0787     3.8476     3.8476    -0.0000
 12 C      6.3125     6.0000    -0.3125     3.8876     3.8876     0.0000
 13 C      6.1275     6.0000    -0.1275     4.0115     4.0115     0.0000
 14 C      6.1639     6.0000    -0.1639     3.9687     3.9687     0.0000
 15 C      6.1212     6.0000    -0.1212     3.8836     3.8836    -0.0000
 16 C      5.7630     6.0000     0.2370     3.9766     3.9766    -0.0000
 17 C      6.1217     6.0000    -0.1217     4.0100     4.0100    -0.0000
 18 C      6.1124     6.0000    -0.1124     3.8611     3.8611     0.0000
 19 C      6.4589     6.0000    -0.4589     3.8987     3.8987    -0.0000
 20 C      6.4377     6.0000    -0.4377     3.8914     3.8914     0.0000
 21 C      6.4549     6.0000    -0.4549     3.8923     3.8923     0.0000
 22 N      7.4606     7.0000    -0.4606     3.0828     3.0828    -0.0000
 23 N      7.5351     7.0000    -0.5351     3.0257     3.0257    -0.0000
 24 O      8.4811     8.0000    -0.4811     2.0544     2.0544    -0.0000
 25 O      8.5175     8.0000    -0.5175     1.9487     1.9487     0.0000
 26 C      6.4534     6.0000    -0.4534     3.8700     3.8700     0.0000
 27 O      8.5230     8.0000    -0.5230     1.9461     1.9461     0.0000
 28 O      8.4772     8.0000    -0.4772     2.0701     2.0701     0.0000
 29 O      8.5096     8.0000    -0.5096     2.0360     2.0360    -0.0000
 30 N      7.4314     7.0000    -0.4314     3.1247     3.1247     0.0000
 31 N      7.5597     7.0000    -0.5597     3.0116     3.0116     0.0000
 32 O      8.4849     8.0000    -0.4849     2.0551     2.0551     0.0000
 33 C      6.4521     6.0000    -0.4521     3.8576     3.8576     0.0000
 34 C      6.4419     6.0000    -0.4419     3.8947     3.8947    -0.0000
 35 C      6.4501     6.0000    -0.4501     3.9024     3.9024    -0.0000
 36 C      6.4464     6.0000    -0.4464     3.8571     3.8571     0.0000
 37 C      6.4409     6.0000    -0.4409     3.8830     3.8830     0.0000
 38 C      6.4510     6.0000    -0.4510     3.8688     3.8688    -0.0000
 39 H      0.8503     1.0000     0.1497     0.9283     0.9283     0.0000
 40 H      0.8413     1.0000     0.1587     0.9339     0.9339     0.0000
 41 H      0.8540     1.0000     0.1460     0.9286     0.9286    -0.0000
 42 H      0.8223     1.0000     0.1777     0.9339     0.9339    -0.0000
 43 H      0.6919     1.0000     0.3081     0.8825     0.8825    -0.0000
 44 H      0.8537     1.0000     0.1463     0.9247     0.9247     0.0000
 45 H      0.8480     1.0000     0.1520     0.9246     0.9246     0.0000
 46 H      0.8274     1.0000     0.1726     0.9272     0.9272    -0.0000
 47 H      0.8337     1.0000     0.1663     0.9117     0.9117    -0.0000
 48 H      0.6879     1.0000     0.3121     0.8948     0.8948    -0.0000
 49 H      0.8581     1.0000     0.1419     0.9342     0.9342     0.0000
 50 H      0.8353     1.0000     0.1647     0.9304     0.9304    -0.0000
 51 H      0.8363     1.0000     0.1637     0.9153     0.9153    -0.0000
 52 H      0.8179     1.0000     0.1821     0.9389     0.9389     0.0000
 53 H      0.8436     1.0000     0.1564     0.9261     0.9261     0.0000
 54 H      0.8222     1.0000     0.1778     0.9394     0.9394     0.0000
 55 H      0.8091     1.0000     0.1909     0.9439     0.9439    -0.0000
 56 H      0.8341     1.0000     0.1659     0.9251     0.9251     0.0000
 57 H      0.8528     1.0000     0.1472     0.9282     0.9282     0.0000
 58 H      0.8560     1.0000     0.1440     0.9208     0.9208     0.0000
 59 H      0.8362     1.0000     0.1638     0.9306     0.9306     0.0000
 60 H      0.8368     1.0000     0.1632     0.9340     0.9340     0.0000
 61 H      0.8545     1.0000     0.1455     0.9315     0.9315    -0.0000
 62 H      0.8312     1.0000     0.1688     0.9459     0.9459    -0.0000
 63 H      0.8501     1.0000     0.1499     0.9258     0.9258     0.0000
 64 H      0.8315     1.0000     0.1685     0.9097     0.9097    -0.0000
 65 H      0.8289     1.0000     0.1711     0.9303     0.9303    -0.0000
 66 H      0.8420     1.0000     0.1580     0.9171     0.9171     0.0000
 67 H      0.8461     1.0000     0.1539     0.9294     0.9294     0.0000
 68 H      0.8726     1.0000     0.1274     0.9234     0.9234     0.0000
 69 H      0.8451     1.0000     0.1549     0.9283     0.9283     0.0000
 70 H      0.8558     1.0000     0.1442     0.9203     0.9203    -0.0000
 71 H      0.8448     1.0000     0.1552     0.9251     0.9251    -0.0000
 72 H      0.8157     1.0000     0.1843     0.9464     0.9464     0.0000
 73 H      0.8495     1.0000     0.1505     0.9326     0.9326     0.0000
 74 H      0.8541     1.0000     0.1459     0.9280     0.9280    -0.0000
 75 H      0.8543     1.0000     0.1457     0.9292     0.9292    -0.0000
 76 H      0.8628     1.0000     0.1372     0.9233     0.9233    -0.0000
 77 H      0.8120     1.0000     0.1880     0.9467     0.9467    -0.0000
 78 H      0.8471     1.0000     0.1529     0.9310     0.9310     0.0000
 79 H      0.8445     1.0000     0.1555     0.9318     0.9318    -0.0000
 80 H      0.8335     1.0000     0.1665     0.9296     0.9296     0.0000
 81 H      0.8483     1.0000     0.1517     0.9291     0.9291     0.0000
 82 H      0.8396     1.0000     0.1604     0.9320     0.9320    -0.0000
 83 H      0.8347     1.0000     0.1653     0.9367     0.9367    -0.0000
 84 H      0.8567     1.0000     0.1433     0.9300     0.9300    -0.0000
 85 H      0.8427     1.0000     0.1573     0.9338     0.9338    -0.0000
 86 H      0.8550     1.0000     0.1450     0.9293     0.9293     0.0000
 87 H      0.8191     1.0000     0.1809     0.9402     0.9402     0.0000
 88 H      0.8137     1.0000     0.1863     0.9419     0.9419     0.0000
 89 H      0.8515     1.0000     0.1485     0.9258     0.9258    -0.0000
 90 H      0.8395     1.0000     0.1605     0.9329     0.9329     0.0000

  Mayer bond orders larger than 0.100000
B(  0-C ,  9-C ) :   1.0197 B(  0-C , 22-N ) :   0.9533 B(  0-C , 51-H ) :   0.9374 
B(  0-C , 52-H ) :   0.9235 B(  1-C , 11-C ) :   0.9433 B(  1-C , 29-O ) :   1.7939 
B(  1-C , 30-N ) :   1.1625 B(  2-C , 10-C ) :   0.9245 B(  2-C , 22-N ) :   1.1089 
B(  2-C , 28-O ) :   1.8421 B(  3-C , 23-N ) :   1.1495 B(  3-C , 25-O ) :   1.0495 
B(  3-C , 32-O ) :   1.8338 B(  4-C ,  9-C ) :   1.0238 B(  4-C , 14-C ) :   1.0263 
B(  4-C , 44-H ) :   0.9417 B(  4-C , 45-H ) :   0.9412 B(  5-C , 24-O ) :   1.8187 
B(  5-C , 27-O ) :   1.0583 B(  5-C , 31-N ) :   1.1306 B(  6-C ,  9-C ) :   1.0227 
B(  6-C , 30-N ) :   0.9561 B(  6-C , 46-H ) :   0.9274 B(  6-C , 47-H ) :   0.9348 
B(  7-C , 11-C ) :   0.9983 B(  7-C , 17-C ) :   1.0321 B(  7-C , 49-H ) :   0.9397 
B(  7-C , 50-H ) :   0.9221 B(  8-C , 20-C ) :   1.0582 B(  8-C , 27-O ) :   0.7882 
B(  8-C , 33-C ) :   1.0568 B(  8-C , 36-C ) :   1.0475 B(  9-C , 58-H ) :   0.9288 
B( 10-C , 12-C ) :   1.0079 B( 10-C , 31-N ) :   0.9567 B( 10-C , 60-H ) :   0.9115 
B( 11-C , 23-N ) :   0.9679 B( 11-C , 62-H ) :   0.9055 B( 12-C , 13-C ) :   1.0297 
B( 12-C , 53-H ) :   0.9344 B( 12-C , 54-H ) :   0.9201 B( 13-C , 34-C ) :   1.0438 
B( 13-C , 35-C ) :   1.0554 B( 13-C , 68-H ) :   0.9441 B( 14-C , 15-C ) :   1.0213 
B( 14-C , 18-C ) :   1.0214 B( 14-C , 70-H ) :   0.9296 B( 15-C , 22-N ) :   0.9606 
B( 15-C , 56-H ) :   0.9280 B( 15-C , 64-H ) :   0.9338 B( 16-C , 25-O ) :   0.7993 
B( 16-C , 26-C ) :   1.0535 B( 16-C , 37-C ) :   1.0588 B( 16-C , 38-C ) :   1.0490 
B( 17-C , 19-C ) :   1.0537 B( 17-C , 21-C ) :   1.0443 B( 17-C , 76-H ) :   0.9410 
B( 18-C , 30-N ) :   0.9510 B( 18-C , 66-H ) :   0.9384 B( 18-C , 72-H ) :   0.9213 
B( 19-C , 74-H ) :   0.9556 B( 19-C , 78-H ) :   0.9580 B( 19-C , 80-H ) :   0.9484 
B( 20-C , 39-H ) :   0.9505 B( 20-C , 40-H ) :   0.9506 B( 20-C , 82-H ) :   0.9516 
B( 21-C , 41-H ) :   0.9588 B( 21-C , 42-H ) :   0.9460 B( 21-C , 84-H ) :   0.9602 
B( 23-N , 48-H ) :   0.8416 B( 26-C , 88-H ) :   0.9384 B( 26-C , 89-H ) :   0.9474 
B( 26-C , 90-H ) :   0.9470 B( 31-N , 43-H ) :   0.8549 B( 33-C , 55-H ) :   0.9334 
B( 33-C , 57-H ) :   0.9457 B( 33-C , 59-H ) :   0.9469 B( 34-C , 61-H ) :   0.9596 
B( 34-C , 63-H ) :   0.9578 B( 34-C , 65-H ) :   0.9519 B( 35-C , 67-H ) :   0.9534 
B( 35-C , 69-H ) :   0.9569 B( 35-C , 71-H ) :   0.9525 B( 36-C , 73-H ) :   0.9522 
B( 36-C , 75-H ) :   0.9484 B( 36-C , 77-H ) :   0.9347 B( 37-C , 79-H ) :   0.9541 
B( 37-C , 81-H ) :   0.9485 B( 37-C , 83-H ) :   0.9463 B( 38-C , 85-H ) :   0.9509 
B( 38-C , 86-H ) :   0.9491 B( 38-C , 87-H ) :   0.9421 

-------
TIMINGS
-------

Total SCF time: 0 days 0 hours 14 min 50 sec 

Total time                  ....     890.083 sec
Sum of individual times     ....     888.208 sec  ( 99.8%)

Fock matrix formation       ....     855.473 sec  ( 96.1%)
  XC integration            ....      16.174 sec  (  1.9% of F)
    Basis function eval.    ....       4.899 sec  ( 30.3% of XC)
    Density eval.           ....       3.410 sec  ( 21.1% of XC)
    XC-Functional eval.     ....       3.047 sec  ( 18.8% of XC)
    XC-Potential eval.      ....       4.111 sec  ( 25.4% of XC)
Diagonalization             ....       0.176 sec  (  0.0%)
Density matrix formation    ....       0.069 sec  (  0.0%)
Population analysis         ....       0.120 sec  (  0.0%)
Initial guess               ....       0.239 sec  (  0.0%)
Orbital Transformation      ....       0.000 sec  (  0.0%)
Orbital Orthonormalization  ....       0.151 sec  (  0.0%)
DIIS solution               ....       0.041 sec  (  0.0%)
SOSCF solution              ....       0.145 sec  (  0.0%)
Grid generation             ....      31.944 sec  (  3.6%)

-------------------------   --------------------
FINAL SINGLE POINT ENERGY     -1805.194389884940
-------------------------   --------------------


                            ***************************************
                            *     ORCA property calculations      *
                            ***************************************

                                    ---------------------
                                    Active property flags
                                    ---------------------
   (+) Dipole Moment


------------------------------------------------------------------------------
                       ORCA ELECTRIC PROPERTIES CALCULATION
------------------------------------------------------------------------------

Dipole Moment Calculation                       ... on
Quadrupole Moment Calculation                   ... off
Polarizability Calculation                      ... off
GBWName                                         ... biscrystal3rd.gbw
Electron density file                           ... biscrystal3rd.scfp
The origin for moment calculation is the CENTER OF MASS  = (15.679609,  9.505336 14.799165)

-------------
DIPOLE MOMENT
-------------
                                X             Y             Z
Electronic contribution:     -8.10191      -7.18667      -5.89654
Nuclear contribution   :      7.82891       6.57401       5.13806
                        -----------------------------------------
Total Dipole Moment    :     -0.27300      -0.61266      -0.75848
                        -----------------------------------------
Magnitude (a.u.)       :      1.01251
Magnitude (Debye)      :      2.57359



--------------------
Rotational spectrum 
--------------------
 
Rotational constants in cm-1:     0.004890     0.001515     0.001442 
Rotational constants in MHz :   146.613010    45.408193    43.228032 

 Dipole components along the rotational axes: 
x,y,z [a.u.] :    -0.225428    -0.911346    -0.379213 
x,y,z [Debye]:    -0.572992    -2.316458    -0.963884 

 

Timings for individual modules:

Sum of individual times         ...      894.120 sec (=  14.902 min)
GTO integral calculation        ...        3.449 sec (=   0.057 min)   0.4 %
SCF iterations                  ...      890.670 sec (=  14.845 min)  99.6 %
                             ****ORCA TERMINATED NORMALLY****
TOTAL RUN TIME: 0 days 0 hours 14 minutes 56 seconds 170 msec
